# vtk DataFile Version 3.0
#This file was generated by the deal.II library on 2025/1/4 at 9:49:58
ASCII
DATASET UNSTRUCTURED_GRID

POINTS 8640 double
1.1 1.1 0
0.9625 1.09063 0
0.825 1.08125 0
1.0875 0.9625 0
0.951563 0.954297 0
0.815625 0.946094 0
1.075 0.825 0
0.940625 0.817969 0
0.80625 0.810937 0
0.825 1.08125 0
0.6875 1.07187 0
0.55 1.0625 0
0.815625 0.946094 0
0.679688 0.937891 0
0.54375 0.929688 0
0.80625 0.810937 0
0.671875 0.803906 0
0.5375 0.796875 0
1.075 0.825 0
0.940625 0.817969 0
0.80625 0.810937 0
1.0625 0.6875 0
0.929688 0.681641 0
0.796875 0.675781 0
1.05 0.55 0
0.91875 0.545313 0
0.7875 0.540625 0
0.80625 0.810937 0
0.671875 0.803906 0
0.5375 0.796875 0
0.796875 0.675781 0
0.664062 0.669922 0
0.53125 0.664062 0
0.7875 0.540625 0
0.65625 0.535937 0
0.525 0.53125 0
0.55 1.0625 0
0.4125 1.05313 0
0.275 1.04375 0
0.54375 0.929688 0
0.407813 0.921484 0
0.271875 0.913281 0
0.5375 0.796875 0
0.403125 0.789844 0
0.26875 0.782813 0
0.275 1.04375 0
0.1375 1.03437 0
0 1.025 0
0.271875 0.913281 0
0.135938 0.905078 0
0 0.896875 0
0.26875 0.782813 0
0.134375 0.775781 0
0 0.76875 0
0.5375 0.796875 0
0.403125 0.789844 0
0.26875 0.782813 0
0.53125 0.664062 0
0.398438 0.658203 0
0.265625 0.652344 0
0.525 0.53125 0
0.39375 0.526563 0
0.2625 0.521875 0
0.26875 0.782813 0
0.134375 0.775781 0
0 0.76875 0
0.265625 0.652344 0
0.132812 0.646484 0
0 0.640625 0
0.2625 0.521875 0
0.13125 0.517187 0
0 0.5125 0
1.05 0.55 0
0.91875 0.545313 0
0.7875 0.540625 0
1.0375 0.4125 0
0.907812 0.408984 0
0.778125 0.405469 0
1.025 0.275 0
0.896875 0.272656 0
0.76875 0.270313 0
0.7875 0.540625 0
0.65625 0.535937 0
0.525 0.53125 0
0.778125 0.405469 0
0.648438 0.401953 0
0.51875 0.398438 0
0.76875 0.270313 0
0.640625 0.267969 0
0.5125 0.265625 0
1.025 0.275 0
0.896875 0.272656 0
0.76875 0.270313 0
1.0125 0.1375 0
0.885937 0.136328 0
0.759375 0.135156 0
1 0 0
0.875 0 0
0.75 0 0
0.76875 0.270313 0
0.640625 0.267969 0
0.5125 0.265625 0
0.759375 0.135156 0
0.632812 0.133984 0
0.50625 0.132812 0
0.75 0 0
0.625 0 0
0.5 0 0
0.525 0.53125 0
0.39375 0.526563 0
0.2625 0.521875 0
0.51875 0.398438 0
0.389062 0.394922 0
0.259375 0.391406 0
0.5125 0.265625 0
0.384375 0.263281 0
0.25625 0.260937 0
0.2625 0.521875 0
0.13125 0.517187 0
0 0.5125 0
0.259375 0.391406 0
0.129688 0.387891 0
0 0.384375 0
0.25625 0.260937 0
0.128125 0.258594 0
0 0.25625 0
0.5125 0.265625 0
0.384375 0.263281 0
0.25625 0.260937 0
0.50625 0.132812 0
0.379687 0.131641 0
0.253125 0.130469 0
0.5 0 0
0.375 0 0
0.25 0 0
0.25625 0.260937 0
0.128125 0.258594 0
0 0.25625 0
0.253125 0.130469 0
0.126562 0.129297 0
0 0.128125 0
0.25 0 0
0.125 0 0
0 0 0
2 1 0
1.8875 1.0125 0
1.775 1.025 0
2 0.875 0
1.88594 0.885938 0
1.77188 0.896875 0
2 0.75 0
1.88437 0.759375 0
1.76875 0.76875 0
1.775 1.025 0
1.6625 1.0375 0
1.55 1.05 0
1.77188 0.896875 0
1.65781 0.907813 0
1.54375 0.91875 0
1.76875 0.76875 0
1.65313 0.778125 0
1.5375 0.7875 0
2 0.75 0
1.88437 0.759375 0
1.76875 0.76875 0
2 0.625 0
1.88281 0.632812 0
1.76562 0.640625 0
2 0.5 0
1.88125 0.50625 0
1.7625 0.5125 0
1.76875 0.76875 0
1.65313 0.778125 0
1.5375 0.7875 0
1.76562 0.640625 0
1.64844 0.648438 0
1.53125 0.65625 0
1.7625 0.5125 0
1.64375 0.51875 0
1.525 0.525 0
1.55 1.05 0
1.4375 1.0625 0
1.325 1.075 0
1.54375 0.91875 0
1.42969 0.929688 0
1.31563 0.940625 0
1.5375 0.7875 0
1.42188 0.796875 0
1.30625 0.80625 0
1.325 1.075 0
1.2125 1.0875 0
1.1 1.1 0
1.31563 0.940625 0
1.20156 0.951563 0
1.0875 0.9625 0
1.30625 0.80625 0
1.19063 0.815625 0
1.075 0.825 0
1.5375 0.7875 0
1.42188 0.796875 0
1.30625 0.80625 0
1.53125 0.65625 0
1.41406 0.664062 0
1.29688 0.671875 0
1.525 0.525 0
1.40625 0.53125 0
1.2875 0.5375 0
1.30625 0.80625 0
1.19063 0.815625 0
1.075 0.825 0
1.29688 0.671875 0
1.17969 0.679688 0
1.0625 0.6875 0
1.2875 0.5375 0
1.16875 0.54375 0
1.05 0.55 0
2 0.5 0
1.88125 0.50625 0
1.7625 0.5125 0
2 0.375 0
1.87969 0.379687 0
1.75938 0.384375 0
2 0.25 0
1.87813 0.253125 0
1.75625 0.25625 0
1.7625 0.5125 0
1.64375 0.51875 0
1.525 0.525 0
1.75938 0.384375 0
1.63906 0.389063 0
1.51875 0.39375 0
1.75625 0.25625 0
1.63438 0.259375 0
1.5125 0.2625 0
2 0.25 0
1.87813 0.253125 0
1.75625 0.25625 0
2 0.125 0
1.87656 0.126562 0
1.75313 0.128125 0
2 0 0
1.875 0 0
1.75 0 0
1.75625 0.25625 0
1.63438 0.259375 0
1.5125 0.2625 0
1.75313 0.128125 0
1.62969 0.129688 0
1.50625 0.13125 0
1.75 0 0
1.625 0 0
1.5 0 0
1.525 0.525 0
1.40625 0.53125 0
1.2875 0.5375 0
1.51875 0.39375 0
1.39844 0.398438 0
1.27813 0.403125 0
1.5125 0.2625 0
1.39062 0.265625 0
1.26875 0.26875 0
1.2875 0.5375 0
1.16875 0.54375 0
1.05 0.55 0
1.27813 0.403125 0
1.15781 0.407813 0
1.0375 0.4125 0
1.26875 0.26875 0
1.14688 0.271875 0
1.025 0.275 0
1.5125 0.2625 0
1.39062 0.265625 0
1.26875 0.26875 0
1.50625 0.13125 0
1.38281 0.132812 0
1.25937 0.134375 0
1.5 0 0
1.375 0 0
1.25 0 0
1.26875 0.26875 0
1.14688 0.271875 0
1.025 0.275 0
1.25937 0.134375 0
1.13594 0.135938 0
1.0125 0.1375 0
1.25 0 0
1.125 0 0
1 0 0
1 2 0
0.875 2.00625 0
0.75 2.0125 0
1.0125 1.8875 0
0.885938 1.8918 0
0.759375 1.89609 0
1.025 1.775 0
0.896875 1.77734 0
0.76875 1.77969 0
0.75 2.0125 0
0.625 2.01875 0
0.5 2.025 0
0.759375 1.89609 0
0.632812 1.90039 0
0.50625 1.90469 0
0.76875 1.77969 0
0.640625 1.78203 0
0.5125 1.78437 0
1.025 1.775 0
0.896875 1.77734 0
0.76875 1.77969 0
1.0375 1.6625 0
0.907813 1.66289 0
0.778125 1.66328 0
1.05 1.55 0
0.91875 1.54844 0
0.7875 1.54688 0
0.76875 1.77969 0
0.640625 1.78203 0
0.5125 1.78437 0
0.778125 1.66328 0
0.648438 1.66367 0
0.51875 1.66406 0
0.7875 1.54688 0
0.65625 1.54531 0
0.525 1.54375 0
0.5 2.025 0
0.375 2.03125 0
0.25 2.0375 0
0.50625 1.90469 0
0.379687 1.90898 0
0.253125 1.91328 0
0.5125 1.78437 0
0.384375 1.78672 0
0.25625 1.78906 0
0.25 2.0375 0
0.125 2.04375 0
0 2.05 0
0.253125 1.91328 0
0.126562 1.91758 0
0 1.92187 0
0.25625 1.78906 0
0.128125 1.79141 0
0 1.79375 0
0.5125 1.78437 0
0.384375 1.78672 0
0.25625 1.78906 0
0.51875 1.66406 0
0.389062 1.66445 0
0.259375 1.66484 0
0.525 1.54375 0
0.39375 1.54219 0
0.2625 1.54062 0
0.25625 1.78906 0
0.128125 1.79141 0
0 1.79375 0
0.259375 1.66484 0
0.129688 1.66523 0
0 1.66562 0
0.2625 1.54062 0
0.13125 1.53906 0
0 1.5375 0
1.05 1.55 0
0.91875 1.54844 0
0.7875 1.54688 0
1.0625 1.4375 0
0.929688 1.43398 0
0.796875 1.43047 0
1.075 1.325 0
0.940625 1.31953 0
0.80625 1.31406 0
0.7875 1.54688 0
0.65625 1.54531 0
0.525 1.54375 0
0.796875 1.43047 0
0.664062 1.42695 0
0.53125 1.42344 0
0.80625 1.31406 0
0.671875 1.30859 0
0.5375 1.30312 0
1.075 1.325 0
0.940625 1.31953 0
0.80625 1.31406 0
1.0875 1.2125 0
0.951563 1.20508 0
0.815625 1.19766 0
1.1 1.1 0
0.9625 1.09063 0
0.825 1.08125 0
0.80625 1.31406 0
0.671875 1.30859 0
0.5375 1.30312 0
0.815625 1.19766 0
0.679688 1.19023 0
0.54375 1.18281 0
0.825 1.08125 0
0.6875 1.07187 0
0.55 1.0625 0
0.525 1.54375 0
0.39375 1.54219 0
0.2625 1.54062 0
0.53125 1.42344 0
0.398438 1.41992 0
0.265625 1.41641 0
0.5375 1.30312 0
0.403125 1.29766 0
0.26875 1.29219 0
0.2625 1.54062 0
0.13125 1.53906 0
0 1.5375 0
0.265625 1.41641 0
0.132812 1.41289 0
0 1.40937 0
0.26875 1.29219 0
0.134375 1.28672 0
0 1.28125 0
0.5375 1.30312 0
0.403125 1.29766 0
0.26875 1.29219 0
0.54375 1.18281 0
0.407813 1.17539 0
0.271875 1.16797 0
0.55 1.0625 0
0.4125 1.05313 0
0.275 1.04375 0
0.26875 1.29219 0
0.134375 1.28672 0
0 1.28125 0
0.271875 1.16797 0
0.135938 1.16055 0
0 1.15312 0
0.275 1.04375 0
0.1375 1.03437 0
0 1.025 0
2.9 1.1 0
2.7875 1.0875 0
2.675 1.075 0
2.9125 0.9625 0
2.79844 0.951563 0
2.68438 0.940625 0
2.925 0.825 0
2.80938 0.815625 0
2.69375 0.80625 0
2.675 1.075 0
2.5625 1.0625 0
2.45 1.05 0
2.68438 0.940625 0
2.57031 0.929688 0
2.45625 0.91875 0
2.69375 0.80625 0
2.57812 0.796875 0
2.4625 0.7875 0
2.925 0.825 0
2.80938 0.815625 0
2.69375 0.80625 0
2.9375 0.6875 0
2.82031 0.679688 0
2.70312 0.671875 0
2.95 0.55 0
2.83125 0.54375 0
2.7125 0.5375 0
2.69375 0.80625 0
2.57812 0.796875 0
2.4625 0.7875 0
2.70312 0.671875 0
2.58594 0.664062 0
2.46875 0.65625 0
2.7125 0.5375 0
2.59375 0.53125 0
2.475 0.525 0
2.45 1.05 0
2.3375 1.0375 0
2.225 1.025 0
2.45625 0.91875 0
2.34219 0.907813 0
2.22813 0.896875 0
2.4625 0.7875 0
2.34688 0.778125 0
2.23125 0.76875 0
2.225 1.025 0
2.1125 1.0125 0
2 1 0
2.22813 0.896875 0
2.11406 0.885938 0
2 0.875 0
2.23125 0.76875 0
2.11563 0.759375 0
2 0.75 0
2.4625 0.7875 0
2.34688 0.778125 0
2.23125 0.76875 0
2.46875 0.65625 0
2.35156 0.648438 0
2.23438 0.640625 0
2.475 0.525 0
2.35625 0.51875 0
2.2375 0.5125 0
2.23125 0.76875 0
2.11563 0.759375 0
2 0.75 0
2.23438 0.640625 0
2.11719 0.632812 0
2 0.625 0
2.2375 0.5125 0
2.11875 0.50625 0
2 0.5 0
2.95 0.55 0
2.83125 0.54375 0
2.7125 0.5375 0
2.9625 0.4125 0
2.84219 0.407813 0
2.72188 0.403125 0
2.975 0.275 0
2.85313 0.271875 0
2.73125 0.26875 0
2.7125 0.5375 0
2.59375 0.53125 0
2.475 0.525 0
2.72188 0.403125 0
2.60156 0.398438 0
2.48125 0.39375 0
2.73125 0.26875 0
2.60938 0.265625 0
2.4875 0.2625 0
2.975 0.275 0
2.85313 0.271875 0
2.73125 0.26875 0
2.9875 0.1375 0
2.86406 0.135938 0
2.74063 0.134375 0
3 0 0
2.875 0 0
2.75 0 0
2.73125 0.26875 0
2.60938 0.265625 0
2.4875 0.2625 0
2.74063 0.134375 0
2.61719 0.132812 0
2.49375 0.13125 0
2.75 0 0
2.625 0 0
2.5 0 0
2.475 0.525 0
2.35625 0.51875 0
2.2375 0.5125 0
2.48125 0.39375 0
2.36094 0.389063 0
2.24062 0.384375 0
2.4875 0.2625 0
2.36562 0.259375 0
2.24375 0.25625 0
2.2375 0.5125 0
2.11875 0.50625 0
2 0.5 0
2.24062 0.384375 0
2.12031 0.379687 0
2 0.375 0
2.24375 0.25625 0
2.12188 0.253125 0
2 0.25 0
2.4875 0.2625 0
2.36562 0.259375 0
2.24375 0.25625 0
2.49375 0.13125 0
2.37031 0.129688 0
2.24688 0.128125 0
2.5 0 0
2.375 0 0
2.25 0 0
2.24375 0.25625 0
2.12188 0.253125 0
2 0.25 0
2.24688 0.128125 0
2.12344 0.126562 0
2 0.125 0
2.25 0 0
2.125 0 0
2 0 0
4 1 0
3.8625 1.0125 0
3.725 1.025 0
4 0.875 0
3.86406 0.885938 0
3.72813 0.896875 0
4 0.75 0
3.86563 0.759375 0
3.73125 0.76875 0
3.725 1.025 0
3.5875 1.0375 0
3.45 1.05 0
3.72813 0.896875 0
3.59219 0.907813 0
3.45625 0.91875 0
3.73125 0.76875 0
3.59688 0.778125 0
3.4625 0.7875 0
4 0.75 0
3.86563 0.759375 0
3.73125 0.76875 0
4 0.625 0
3.86719 0.632812 0
[...]
POINT_DATA 8640
VECTORS v double
1.23423 -0.291789 0
1.21134 -0.241319 0
1.19036 -0.192628 0
1.16407 -0.261666 0
1.13159 -0.217922 0
1.1085 -0.179479 0
1.07761 -0.228909 0
1.04412 -0.192678 0
1.0131 -0.158625 0
1.19036 -0.192628 0
1.17643 -0.154815 0
1.16263 -0.117399 0
1.1085 -0.179479 0
1.08573 -0.143361 0
1.07059 -0.111964 0
1.0131 -0.158625 0
0.987462 -0.127626 0
0.966064 -0.0994531 0
1.07761 -0.228909 0
1.04412 -0.192678 0
1.0131 -0.158625 0
0.969081 -0.182169 0
0.930465 -0.154745 0
0.896438 -0.129313 0
0.837947 -0.143227 0
0.799301 -0.122879 0
0.765126 -0.103505 0
1.0131 -0.158625 0
0.987462 -0.127626 0
0.966064 -0.0994531 0
0.896438 -0.129313 0
0.867899 -0.105386 0
0.844148 -0.082785 0
0.765126 -0.103505 0
0.735699 -0.084684 0
0.711413 -0.0668659 0
1.16263 -0.117399 0
1.15247 -0.0873101 0
1.14177 -0.0559704 0
1.07059 -0.111964 0
1.05442 -0.0824561 0
1.04441 -0.0545491 0
0.966064 -0.0994531 0
0.947951 -0.0729162 0
0.934958 -0.0480499 0
1.14177 -0.0559704 0
1.13362 -0.0286898 0
1.125 0 0
1.04441 -0.0545491 0
1.03248 -0.0269741 0
1.02539 0 0
0.934958 -0.0480499 0
0.921867 -0.0236605 0
0.914062 0 0
0.966064 -0.0994531 0
0.947951 -0.0729162 0
0.934958 -0.0480499 0
0.844148 -0.082785 0
0.824956 -0.0609435 0
0.810883 -0.0405949 0
0.711413 -0.0668659 0
0.691179 -0.0496004 0
0.676381 -0.0333352 0
0.934958 -0.0480499 0
0.921867 -0.0236605 0
0.914062 0 0
0.810883 -0.0405949 0
0.798554 -0.0204848 0
0.791016 0 0
0.676381 -0.0333352 0
0.663662 -0.0169385 0
0.65625 0 0
0.837947 -0.143227 0
0.799301 -0.122879 0
0.765126 -0.103505 0
0.691995 -0.0981635 0
0.652599 -0.0842403 0
0.617625 -0.0709023 0
0.522295 -0.0587179 0
0.485118 -0.0507916 0
0.452189 -0.0432851 0
0.765126 -0.103505 0
0.735699 -0.084684 0
0.711413 -0.0668659 0
0.617625 -0.0709023 0
0.587549 -0.0580486 0
0.562769 -0.0458993 0
0.452189 -0.0432851 0
0.423789 -0.0359718 0
0.400523 -0.0290792 0
0.522295 -0.0587179 0
0.485118 -0.0507916 0
0.452189 -0.0432851 0
0.31456 -0.0181246 0
0.284516 -0.0153446 0
0.259178 -0.0129358 0
0 0 0
0 0 0
0 0 0
0.452189 -0.0432851 0
0.423789 -0.0359718 0
0.400523 -0.0290792 0
0.259178 -0.0129358 0
0.236468 -0.0105101 0
0.21872 -0.0083916 0
0 0 0
0 0 0
0 0 0
0.711413 -0.0668659 0
0.691179 -0.0496004 0
0.676381 -0.0333352 0
0.562769 -0.0458993 0
0.54231 -0.0339808 0
0.527607 -0.0226248 0
0.400523 -0.0290792 0
0.38129 -0.0221676 0
0.36768 -0.0155765 0
0.676381 -0.0333352 0
0.663662 -0.0169385 0
0.65625 0 0
0.527607 -0.0226248 0
0.515855 -0.0111528 0
0.509766 0 0
0.36768 -0.0155765 0
0.356936 -0.00851341 0
0.351562 0 0
0.400523 -0.0290792 0
0.38129 -0.0221676 0
0.36768 -0.0155765 0
0.21872 -0.0083916 0
0.20344 -0.00609452 0
0.193325 -0.00406361 0
0 0 0
0 0 0
0 0 0
0.36768 -0.0155765 0
0.356936 -0.00851341 0
0.351562 0 0
0.193325 -0.00406361 0
0.185055 -0.00189427 0
0.181641 0 0
0 0 0
0 0 0
0 0 0
1.70137 -0.471047 0
1.60957 -0.494682 0
1.54371 -0.500166 0
1.57283 -0.386051 0
1.50201 -0.402642 0
1.43454 -0.408762 0
1.44765 -0.311998 0
1.39429 -0.332286 0
1.33514 -0.341395 0
1.54371 -0.500166 0
1.45783 -0.482111 0
1.39449 -0.455106 0
1.43454 -0.408762 0
1.36793 -0.401805 0
1.30773 -0.386151 0
1.33514 -0.341395 0
1.28296 -0.340084 0
1.22704 -0.328308 0
1.44765 -0.311998 0
1.39429 -0.332286 0
1.33514 -0.341395 0
1.3443 -0.244903 0
1.29119 -0.256 0
1.23544 -0.261039 0
1.19385 -0.174945 0
1.14283 -0.185252 0
1.08882 -0.191252 0
1.33514 -0.341395 0
1.28296 -0.340084 0
1.22704 -0.328308 0
1.23544 -0.261039 0
1.18114 -0.258785 0
1.12621 -0.250667 0
1.08882 -0.191252 0
1.03901 -0.192686 0
0.98859 -0.189489 0
1.39449 -0.455106 0
1.33316 -0.418166 0
1.29238 -0.376361 0
1.30773 -0.386151 0
1.25882 -0.359865 0
1.21853 -0.330018 0
1.22704 -0.328308 0
1.18376 -0.309105 0
1.14057 -0.284269 0
1.29238 -0.376361 0
1.25721 -0.334804 0
1.23423 -0.291789 0
1.21853 -0.330018 0
1.1866 -0.295375 0
1.16407 -0.261666 0
1.14057 -0.284269 0
1.1083 -0.257281 0
1.07761 -0.228909 0
1.22704 -0.328308 0
1.18376 -0.309105 0
1.14057 -0.284269 0
1.12621 -0.250667 0
1.08032 -0.2376 0
1.03645 -0.221215 0
0.98859 -0.189489 0
0.945863 -0.1821 0
0.904764 -0.171575 0
1.14057 -0.284269 0
1.1083 -0.257281 0
1.07761 -0.228909 0
1.03645 -0.221215 0
1.001 -0.202621 0
0.969081 -0.182169 0
0.904764 -0.171575 0
0.869896 -0.158353 0
0.837947 -0.143227 0
1.19385 -0.174945 0
1.14283 -0.185252 0
1.08882 -0.191252 0
1.04526 -0.124188 0
0.997622 -0.131235 0
0.946923 -0.135136 0
0.872034 -0.0675564 0
0.825385 -0.0726441 0
0.775209 -0.0758121 0
1.08882 -0.191252 0
1.03901 -0.192686 0
0.98859 -0.189489 0
0.946923 -0.135136 0
0.898853 -0.135246 0
0.849339 -0.131985 0
0.775209 -0.0758121 0
0.727732 -0.0767278 0
0.678911 -0.0756249 0
0.872034 -0.0675564 0
0.825385 -0.0726441 0
0.775209 -0.0758121 0
0.588216 -0.0213914 0
0.555989 -0.0234064 0
0.517445 -0.0246135 0
0 0 0
0 0 0
0 0 0
0.775209 -0.0758121 0
0.727732 -0.0767278 0
0.678911 -0.0756249 0
0.517445 -0.0246135 0
0.481712 -0.0250714 0
0.442654 -0.0245133 0
0 0 0
0 0 0
0 0 0
0.98859 -0.189489 0
0.945863 -0.1821 0
0.904764 -0.171575 0
0.849339 -0.131985 0
0.805775 -0.125935 0
0.763136 -0.117918 0
0.678911 -0.0756249 0
0.635618 -0.0729351 0
0.593296 -0.0691084 0
0.904764 -0.171575 0
0.869896 -0.158353 0
0.837947 -0.143227 0
0.763136 -0.117918 0
0.726131 -0.108682 0
0.691995 -0.0981635 0
0.593296 -0.0691084 0
0.556461 -0.064427 0
0.522295 -0.0587179 0
0.678911 -0.0756249 0
0.635618 -0.0729351 0
0.593296 -0.0691084 0
0.442654 -0.0245133 0
0.408027 -0.0235374 0
0.373493 -0.0219484 0
0 0 0
0 0 0
0 0 0
0.593296 -0.0691084 0
0.556461 -0.064427 0
0.522295 -0.0587179 0
0.373493 -0.0219484 0
0.34274 -0.0202886 0
0.31456 -0.0181246 0
0 0 0
0 0 0
0 0 0
1.24129 -0.0108784 0
1.31523 -0.00814629 0
1.37371 -0.00659797 0
1.25289 -0.0891634 0
1.3191 -0.0681021 0
1.37504 -0.0509719 0
1.24629 -0.15241 0
1.30735 -0.11734 0
1.36045 -0.089469 0
1.37371 -0.00659797 0
1.41637 -0.00584942 0
1.44812 -0.0052536 0
1.37504 -0.0509719 0
1.41405 -0.0398946 0
1.44532 -0.030511 0
1.36045 -0.089469 0
1.39702 -0.0696437 0
1.42758 -0.0527581 0
1.24629 -0.15241 0
1.30735 -0.11734 0
1.36045 -0.089469 0
1.26296 -0.226221 0
1.31134 -0.173978 0
1.35394 -0.132671 0
1.27697 -0.259158 0
1.30823 -0.202281 0
1.33711 -0.155923 0
1.36045 -0.089469 0
1.39702 -0.0696437 0
1.42758 -0.0527581 0
1.35394 -0.132671 0
1.38319 -0.103141 0
1.40849 -0.0779136 0
1.33711 -0.155923 0
1.35801 -0.121959 0
1.37727 -0.0918086 0
1.44812 -0.0052536 0
1.47175 -0.00449507 0
1.48664 -0.00334731 0
1.44532 -0.030511 0
1.46698 -0.0230649 0
1.48203 -0.0153147 0
1.42758 -0.0527581 0
1.44854 -0.038728 0
1.46439 -0.0252242 0
1.48664 -0.00334731 0
1.49727 -0.00180896 0
1.5 0 0
1.48203 -0.0153147 0
1.49102 -0.0076241 0
1.49414 0 0
1.46439 -0.0252242 0
1.473 -0.0125538 0
1.47656 0 0
1.42758 -0.0527581 0
1.44854 -0.038728 0
1.46439 -0.0252242 0
1.40849 -0.0779136 0
1.42521 -0.0573297 0
1.43857 -0.0376171 0
1.37727 -0.0918086 0
1.38962 -0.0670495 0
1.40039 -0.0433728 0
1.46439 -0.0252242 0
1.473 -0.0125538 0
1.47656 0 0
1.43857 -0.0376171 0
1.44453 -0.0191081 0
1.44727 0 0
1.40039 -0.0433728 0
1.40424 -0.0219033 0
1.40625 0 0
1.27697 -0.259158 0
1.30823 -0.202281 0
1.33711 -0.155923 0
1.2756 -0.296055 0
1.29648 -0.235547 0
1.31215 -0.18364 0
1.27858 -0.304487 0
1.28268 -0.244368 0
1.28359 -0.192008 0
1.33711 -0.155923 0
1.35801 -0.121959 0
1.37727 -0.0918086 0
1.31215 -0.18364 0
1.32675 -0.145386 0
1.33796 -0.10962 0
1.28359 -0.192008 0
1.28791 -0.151901 0
1.29055 -0.114441 0
1.27858 -0.304487 0
1.28268 -0.244368 0
1.28359 -0.192008 0
1.25522 -0.303676 0
1.25094 -0.251339 0
1.23761 -0.198385 0
1.23423 -0.291789 0
1.21134 -0.241319 0
1.19036 -0.192628 0
1.28359 -0.192008 0
1.28791 -0.151901 0
1.29055 -0.114441 0
1.23761 -0.198385 0
1.23622 -0.160071 0
1.22926 -0.120631 0
1.19036 -0.192628 0
1.17643 -0.154815 0
1.16263 -0.117399 0
1.37727 -0.0918086 0
1.38962 -0.0670495 0
1.40039 -0.0433728 0
1.33796 -0.10962 0
1.34605 -0.0807495 0
1.35166 -0.0527372 0
1.29055 -0.114441 0
1.29205 -0.0840652 0
1.2924 -0.0541942 0
1.40039 -0.0433728 0
1.40424 -0.0219033 0
1.40625 0 0
1.35166 -0.0527372 0
1.35363 -0.0275646 0
1.35352 0 0
1.2924 -0.0541942 0
1.29112 -0.0276048 0
1.28906 0 0
1.29055 -0.114441 0
1.29205 -0.0840652 0
1.2924 -0.0541942 0
1.22926 -0.120631 0
1.22714 -0.0904602 0
1.22137 -0.0581616 0
1.16263 -0.117399 0
1.15247 -0.0873101 0
1.14177 -0.0559704 0
1.2924 -0.0541942 0
1.29112 -0.0276048 0
1.28906 0 0
1.22137 -0.0581616 0
1.21828 -0.030436 0
1.21289 0 0
1.14177 -0.0559704 0
1.13362 -0.0286898 0
1.125 0 0
2.01715 -0.0585706 0
2.01241 -0.126762 0
2.0437 -0.195429 0
1.98323 -0.0590691 0
1.97044 -0.109286 0
1.94023 -0.158115 0
1.84487 -0.0350396 0
1.81408 -0.0752851 0
1.79125 -0.117143 0
2.0437 -0.195429 0
1.99174 -0.253928 0
1.98431 -0.309232 0
1.94023 -0.158115 0
1.90819 -0.206715 0
1.8639 -0.256879 0
1.79125 -0.117143 0
1.74662 -0.158967 0
1.70267 -0.200802 0
1.84487 -0.0350396 0
1.81408 -0.0752851 0
1.79125 -0.117143 0
1.69468 -0.035659 0
1.67325 -0.0689281 0
1.64817 -0.102573 0
1.55936 -0.01797 0
1.53546 -0.0434515 0
1.50898 -0.0686699 0
1.79125 -0.117143 0
1.74662 -0.158967 0
1.70267 -0.200802 0
1.64817 -0.102573 0
1.61397 -0.135127 0
1.57361 -0.165813 0
1.50898 -0.0686699 0
1.47084 -0.0926368 0
1.42883 -0.115294 0
1.98431 -0.309232 0
1.91846 -0.364138 0
1.88609 -0.414606 0
1.8639 -0.256879 0
1.80192 -0.303048 0
1.72949 -0.339578 0
1.70267 -0.200802 0
1.64605 -0.238786 0
1.58942 -0.272098 0
1.88609 -0.414606 0
1.7717 -0.438407 0
1.70137 -0.471047 0
1.72949 -0.339578 0
1.65148 -0.367698 0
1.57283 -0.386051 0
1.58942 -0.272098 0
1.52153 -0.294843 0
1.44765 -0.311998 0
1.70267 -0.200802 0
1.64605 -0.238786 0
1.58942 -0.272098 0
1.57361 -0.165813 0
1.52575 -0.192475 0
1.4706 -0.215751 0
1.42883 -0.115294 0
1.37756 -0.135531 0
1.3219 -0.153485 0
1.58942 -0.272098 0
1.52153 -0.294843 0
1.44765 -0.311998 0
1.4706 -0.215751 0
1.40936 -0.233277 0
1.3443 -0.244903 0
1.3219 -0.153485 0
1.26116 -0.166435 0
1.19385 -0.174945 0
1.55936 -0.01797 0
1.53546 -0.0434515 0
1.50898 -0.0686699 0
1.38783 -0.00201484 0
1.36367 -0.0215916 0
1.33677 -0.0411596 0
1.17115 0.015094 0
1.15274 0.00197972 0
1.13164 -0.0109576 0
1.50898 -0.0686699 0
1.47084 -0.0926368 0
1.42883 -0.115294 0
1.33677 -0.0411596 0
1.3003 -0.0601015 0
1.26028 -0.0780166 0
1.13164 -0.0109576 0
1.10087 -0.0237636 0
1.06602 -0.0357557 0
1.17115 0.015094 0
1.15274 0.00197972 0
1.13164 -0.0109576 0
0.765671 0.00823242 0
0.765193 0.00378027 0
0.760159 -0.00068862 0
0 0 0
0 0 0
0 0 0
1.13164 -0.0109576 0
1.10087 -0.0237636 0
1.06602 -0.0357557 0
0.760159 -0.00068862 0
0.746727 -0.00497035 0
0.726935 -0.00916875 0
0 0 0
0 0 0
0 0 0
1.42883 -0.115294 0
1.37756 -0.135531 0
1.3219 -0.153485 0
1.26028 -0.0780166 0
1.21294 -0.0938155 0
1.16079 -0.10717 0
1.06602 -0.0357557 0
1.02358 -0.0464983 0
0.97699 -0.0558187 0
1.3219 -0.153485 0
1.26116 -0.166435 0
1.19385 -0.174945 0
1.16079 -0.10717 0
1.105 -0.117 0
1.04526 -0.124188 0
0.97699 -0.0558187 0
0.926665 -0.0628239 0
0.872034 -0.0675564 0
1.06602 -0.0357557 0
1.02358 -0.0464983 0
0.97699 -0.0558187 0
0.726935 -0.00916875 0
0.701031 -0.0127252 0
0.66757 -0.0163471 0
0 0 0
0 0 0
0 0 0
0.97699 -0.0558187 0
0.926665 -0.0628239 0
0.872034 -0.0675564 0
0.66757 -0.0163471 0
0.631613 -0.0191753 0
0.588216 -0.0213914 0
0 0 0
0 0 0
0 0 0
1.90303 0.201237 0
1.9027 0.181468 0
1.89973 0.156505 0
1.81214 0.203562 0
1.83839 0.182955 0
1.86469 0.159463 0
1.68883 0.182089 0
1.70818 0.163127 0
1.72881 0.140881 0
1.89973 0.156505 0
1.9041 0.135839 0
1.91312 0.10775 0
1.86469 0.159463 0
1.88843 0.139265 0
1.91611 0.1136 0
1.72881 0.140881 0
1.74875 0.121183 0
1.7704 0.0973878 0
1.68883 0.182089 0
1.70818 0.163127 0
1.72881 0.140881 0
1.58468 0.17146 0
1.60787 0.153712 0
1.6304 0.132404 0
1.43468 0.14816 0
1.4646 0.134795 0
1.49186 0.11746 0
1.72881 0.140881 0
1.74875 0.121183 0
1.7704 0.0973878 0
1.6304 0.132404 0
1.64724 0.112131 0
1.6644 0.0881293 0
1.49186 0.11746 0
1.51263 0.10098 0
1.53291 0.0812006 0
1.91312 0.10775 0
1.93267 0.0778548 0
1.95624 0.037834 0
1.91611 0.1136 0
1.93586 0.0849228 0
1.96011 0.0468013 0
1.7704 0.0973878 0
1.79248 0.0725262 0
1.81628 0.0416361 0
1.95624 0.037834 0
1.98513 -0.0067131 0
2.01715 -0.0585706 0
1.96011 0.0468013 0
1.97174 -0.000601479 0
1.98323 -0.0590691 0
1.81628 0.0416361 0
1.83119 0.00614378 0
1.84487 -0.0350396 0
1.7704 0.0973878 0
1.79248 0.0725262 0
1.81628 0.0416361 0
1.6644 0.0881293 0
1.67629 0.0628338 0
1.68807 0.0331994 0
1.53291 0.0812006 0
1.54549 0.060728 0
1.55763 0.0368852 0
1.81628 0.0416361 0
1.83119 0.00614378 0
1.84487 -0.0350396 0
1.68807 0.0331994 0
1.69143 0.000688471 0
1.69468 -0.035659 0
1.55763 0.0368852 0
1.5602 0.0109113 0
1.55936 -0.01797 0
1.43468 0.14816 0
1.4646 0.134795 0
1.49186 0.11746 0
1.23371 0.120208 0
1.27405 0.111794 0
1.31263 0.0997325 0
0.90933 0.0773856 0
0.968108 0.0752413 0
1.02634 0.0704316 0
1.49186 0.11746 0
1.51263 0.10098 0
1.53291 0.0812006 0
1.31263 0.0997325 0
1.3382 0.0872594 0
1.363 0.0722399 0
1.02634 0.0704316 0
1.06905 0.0648699 0
1.10984 0.0576056 0
0.90933 0.0773856 0
0.968108 0.0752413 0
1.02634 0.0704316 0
0.459962 0.0235341 0
0.50436 0.0246453 0
0.556807 0.0241114 0
0 0 0
0 0 0
0 0 0
1.02634 0.0704316 0
1.06905 0.0648699 0
1.10984 0.0576056 0
0.556807 0.0241114 0
0.599343 0.0228778 0
0.645132 0.0210958 0
0 0 0
0 0 0
0 0 0
1.53291 0.0812006 0
1.54549 0.060728 0
1.55763 0.0368852 0
1.363 0.0722399 0
1.37603 0.0563021 0
1.38836 0.0384095 0
1.10984 0.0576056 0
1.13588 0.04926 0
1.15896 0.039429 0
1.55763 0.0368852 0
1.5602 0.0109113 0
1.55936 -0.01797 0
1.38836 0.0384095 0
1.38891 0.0189891 0
1.38783 -0.00201484 0
1.15896 0.039429 0
1.16714 0.0279551 0
1.17115 0.015094 0
1.10984 0.0576056 0
1.13588 0.04926 0
1.15896 0.039429 0
0.645132 0.0210958 0
0.680923 0.0186931 0
0.717156 0.0157334 0
0 0 0
0 0 0
0 0 0
1.15896 0.039429 0
1.16714 0.0279551 0
1.17115 0.015094 0
0.717156 0.0157334 0
0.74256 0.0118643 0
0.765671 0.00823242 0
0 0 0
0 0 0
0 0 0
-0.470593 -0.220496 0
-0.60664 -0.0354409 0
-0.754048 0.106088 0
-0.804006 -0.105516 0
-0.906235 0.069965 0
-0.997119 0.214067 0
-0.950505 -0.0953317 0
-1.00943 0.0319472 0
-1.05433 0.141592 0
-0.754048 0.106088 0
-0.84302 0.224315 0
-0.915439 0.333444 0
-0.997119 0.214067 0
-1.04008 0.319578 0
-1.06562 0.409129 0
-1.05433 0.141592 0
-1.04812 0.245442 0
-0.997485 0.316622 0
-0.950505 -0.0953317 0
-1.00943 0.0319472 0
-1.05433 0.141592 0
-0.533248 0.062373 0
-0.615329 0.143193 0
-0.643154 0.247138 0
0.146214 0.140331 0
0.0808972 0.203135 0
0.0810978 0.245025 0
-1.05433 0.141592 0
-1.04812 0.245442 0
-0.997485 0.316622 0
-0.643154 0.247138 0
-0.604199 0.309358 0
-0.550541 0.302163 0
0.0810978 0.245025 0
0.0417402 0.243645 0
0.0402523 0.24511 0
-0.915439 0.333444 0
-0.970021 0.437365 0
-0.999518 0.50691 0
-1.06562 0.409129 0
-1.04822 0.471604 0
-1.00042 0.488135 0
-0.997485 0.316622 0
-0.910229 0.330887 0
-0.83386 0.336359 0
-0.999518 0.50691 0
-0.957263 0.535031 0
-0.883608 0.517127 0
-1.00042 0.488135 0
-0.904132 0.479596 0
-0.782029 0.428985 0
-0.83386 0.336359 0
-0.68758 0.343094 0
-0.521679 0.28046 0
-0.997485 0.316622 0
-0.910229 0.330887 0
-0.83386 0.336359 0
-0.550541 0.302163 0
-0.509564 0.285769 0
-0.439692 0.288744 0
0.0402523 0.24511 0
0.057583 0.240728 0
0.0876503 0.212605 0
-0.83386 0.336359 0
-0.68758 0.343094 0
-0.521679 0.28046 0
-0.439692 0.288744 0
-0.309586 0.244415 0
-0.222067 0.146857 0
0.0876503 0.212605 0
0.0919111 0.156829 0
0.104413 0.0861696 0
0.146214 0.140331 0
0.0808972 0.203135 0
0.0810978 0.245025 0
0.746672 0.126238 0
0.677963 0.156638 0
0.624573 0.178353 0
1.30144 0.233802 0
1.24853 0.239449 0
1.20318 0.237084 0
0.0810978 0.245025 0
0.0417402 0.243645 0
0.0402523 0.24511 0
0.624573 0.178353 0
0.598229 0.209868 0
0.583978 0.214906 0
1.20318 0.237084 0
1.1698 0.235423 0
1.1501 0.224531 0
1.30144 0.233802 0
1.24853 0.239449 0
1.20318 0.237084 0
1.63936 0.203858 0
1.61503 0.193966 0
1.59605 0.183457 0
1.90303 0.201237 0
1.9027 0.181468 0
1.89973 0.156505 0
1.20318 0.237084 0
1.1698 0.235423 0
1.1501 0.224531 0
1.59605 0.183457 0
1.59666 0.179327 0
1.60264 0.16704 0
1.89973 0.156505 0
1.9041 0.135839 0
1.91312 0.10775 0
0.0402523 0.24511 0
0.057583 0.240728 0
0.0876503 0.212605 0
0.583978 0.214906 0
0.553236 0.195304 0
0.531153 0.164133 0
1.1501 0.224531 0
1.13109 0.206431 0
1.11002 0.171808 0
0.0876503 0.212605 0
0.0919111 0.156829 0
0.104413 0.0861696 0
0.531153 0.164133 0
0.503432 0.119822 0
0.483375 0.0674415 0
1.11002 0.171808 0
1.07008 0.124161 0
1.03325 0.0639953 0
1.1501 0.224531 0
1.13109 0.206431 0
1.11002 0.171808 0
1.60264 0.16704 0
1.61977 0.148531 0
1.64196 0.11633 0
1.91312 0.10775 0
1.93267 0.0778548 0
1.95624 0.037834 0
1.11002 0.171808 0
1.07008 0.124161 0
1.03325 0.0639953 0
1.64196 0.11633 0
1.66292 0.0698177 0
1.68573 0.00425673 0
1.95624 0.037834 0
1.98513 -0.0067131 0
2.01715 -0.0585706 0
2.20987 -0.640024 0
2.30923 -0.547658 0
2.37152 -0.433057 0
2.10348 -0.749177 0
2.08699 -0.650478 0
2.07637 -0.52431 0
1.86453 -0.811137 0
1.88574 -0.708754 0
1.84766 -0.533643 0
2.37152 -0.433057 0
2.34882 -0.29145 0
2.32241 -0.151257 0
2.07637 -0.52431 0
2.00555 -0.366405 0
1.94822 -0.208647 0
1.84766 -0.533643 0
1.75929 -0.347621 0
1.62332 -0.141283 0
1.86453 -0.811137 0
1.88574 -0.708754 0
1.84766 -0.533643 0
1.73346 -0.794594 0
1.63435 -0.604469 0
1.52018 -0.401477 0
1.37486 -0.673103 0
1.1577 -0.458924 0
1.04099 -0.274528 0
1.84766 -0.533643 0
1.75929 -0.347621 0
1.62332 -0.141283 0
1.52018 -0.401477 0
1.34953 -0.200399 0
1.20759 -0.0216436 0
1.04099 -0.274528 0
0.880172 -0.102206 0
0.815308 0.0424358 0
2.32241 -0.151257 0
2.25219 -0.0150078 0
2.19528 0.107507 0
1.94822 -0.208647 0
1.8269 -0.0513432 0
1.72301 0.0870697 0
1.62332 -0.141283 0
1.47462 0.0292763 0
1.31709 0.188225 0
2.19528 0.107507 0
2.13431 0.214859 0
2.09363 0.302786 0
1.72301 0.0870697 0
1.59066 0.19683 0
1.49329 0.269711 0
1.31709 0.188225 0
1.1634 0.283616 0
0.985645 0.34508 0
1.62332 -0.141283 0
1.47462 0.0292763 0
1.31709 0.188225 0
1.20759 -0.0216436 0
1.07412 0.132435 0
0.95273 0.270141 0
0.815308 0.0424358 0
0.699585 0.193468 0
0.621257 0.317079 0
1.31709 0.188225 0
1.1634 0.283616 0
0.985645 0.34508 0
0.95273 0.270141 0
0.83442 0.382481 0
0.703388 0.458622 0
0.621257 0.317079 0
0.498098 0.423011 0
0.384181 0.52549 0
1.37486 -0.673103 0
1.1577 -0.458924 0
1.04099 -0.274528 0
0.814635 -0.600688 0
0.688074 -0.399669 0
0.589086 -0.205872 0
0.417619 -0.568279 0
0.3292 -0.341162 0
0.183789 -0.132946 0
1.04099 -0.274528 0
0.880172 -0.102206 0
0.815308 0.0424358 0
0.589086 -0.205872 0
0.48511 -0.0550617 0
0.391053 0.11097 0
0.183789 -0.132946 0
0.0640786 0.0371311 0
-0.066613 0.218379 0
0.417619 -0.568279 0
0.3292 -0.341162 0
0.183789 -0.132946 0
-0.0226667 -0.36154 0
-0.142504 -0.171775 0
-0.284047 -0.0192809 0
-0.470593 -0.220496 0
-0.60664 -0.0354409 0
-0.754048 0.106088 0
0.183789 -0.132946 0
0.0640786 0.0371311 0
-0.066613 0.218379 0
-0.284047 -0.0192809 0
-0.390515 0.135501 0
-0.502325 0.287049 0
-0.754048 0.106088 0
-0.84302 0.224315 0
-0.915439 0.333444 0
0.815308 0.0424358 0
0.699585 0.193468 0
0.621257 0.317079 0
0.391053 0.11097 0
0.2716 0.267875 0
0.163488 0.403074 0
-0.066613 0.218379 0
-0.160882 0.360453 0
-0.266556 0.460769 0
0.621257 0.317079 0
0.498098 0.423011 0
0.384181 0.52549 0
0.163488 0.403074 0
0.0957632 0.4974 0
0.00168626 0.5662 0
-0.266556 0.460769 0
-0.31285 0.556764 0
-0.354366 0.609803 0
-0.066613 0.218379 0
-0.160882 0.360453 0
-0.266556 0.460769 0
-0.502325 0.287049 0
-0.583082 0.40656 0
-0.661458 0.493706 0
-0.915439 0.333444 0
-0.970021 0.437365 0
-0.999518 0.50691 0
-0.266556 0.460769 0
-0.31285 0.556764 0
-0.354366 0.609803 0
-0.661458 0.493706 0
-0.678484 0.561149 0
-0.671741 0.583991 0
-0.999518 0.50691 0
-0.957263 0.535031 0
-0.883608 0.517127 0
0 0 0
0 0 0
0 0 0
0.438705 -0.0337409 0
0.507768 -0.0359955 0
0.575137 -0.0368033 0
0.854068 -0.127552 0
0.954582 -0.130872 0
1.05017 -0.128383 0
0 0 0
0 0 0
0 0 0
0.575137 -0.0368033 0
0.64174 -0.0361641 0
0.70422 -0.0335862 0
1.05017 -0.128383 0
1.12642 -0.118204 0
1.18931 -0.102754 0
0.854068 -0.127552 0
0.954582 -0.130872 0