# vtk DataFile Version 3.0
#This file was generated by the deal.II library on 2025/1/4 at 10:15:34
ASCII
DATASET UNSTRUCTURED_GRID

POINTS 8640 double
1.1 1.1 0
0.9625 1.09063 0
0.825 1.08125 0
1.0875 0.9625 0
0.951563 0.954297 0
0.815625 0.946094 0
1.075 0.825 0
0.940625 0.817969 0
0.80625 0.810937 0
0.825 1.08125 0
0.6875 1.07187 0
0.55 1.0625 0
0.815625 0.946094 0
0.679688 0.937891 0
0.54375 0.929688 0
0.80625 0.810937 0
0.671875 0.803906 0
0.5375 0.796875 0
1.075 0.825 0
0.940625 0.817969 0
0.80625 0.810937 0
1.0625 0.6875 0
0.929688 0.681641 0
0.796875 0.675781 0
1.05 0.55 0
0.91875 0.545313 0
0.7875 0.540625 0
0.80625 0.810937 0
0.671875 0.803906 0
0.5375 0.796875 0
0.796875 0.675781 0
0.664062 0.669922 0
0.53125 0.664062 0
0.7875 0.540625 0
0.65625 0.535937 0
0.525 0.53125 0
0.55 1.0625 0
0.4125 1.05313 0
0.275 1.04375 0
0.54375 0.929688 0
0.407813 0.921484 0
0.271875 0.913281 0
0.5375 0.796875 0
0.403125 0.789844 0
0.26875 0.782813 0
0.275 1.04375 0
0.1375 1.03437 0
0 1.025 0
0.271875 0.913281 0
0.135938 0.905078 0
0 0.896875 0
0.26875 0.782813 0
0.134375 0.775781 0
0 0.76875 0
0.5375 0.796875 0
0.403125 0.789844 0
0.26875 0.782813 0
0.53125 0.664062 0
0.398438 0.658203 0
0.265625 0.652344 0
0.525 0.53125 0
0.39375 0.526563 0
0.2625 0.521875 0
0.26875 0.782813 0
0.134375 0.775781 0
0 0.76875 0
0.265625 0.652344 0
0.132812 0.646484 0
0 0.640625 0
0.2625 0.521875 0
0.13125 0.517187 0
0 0.5125 0
1.05 0.55 0
0.91875 0.545313 0
0.7875 0.540625 0
1.0375 0.4125 0
0.907812 0.408984 0
0.778125 0.405469 0
1.025 0.275 0
0.896875 0.272656 0
0.76875 0.270313 0
0.7875 0.540625 0
0.65625 0.535937 0
0.525 0.53125 0
0.778125 0.405469 0
0.648438 0.401953 0
0.51875 0.398438 0
0.76875 0.270313 0
0.640625 0.267969 0
0.5125 0.265625 0
1.025 0.275 0
0.896875 0.272656 0
0.76875 0.270313 0
1.0125 0.1375 0
0.885937 0.136328 0
0.759375 0.135156 0
1 0 0
0.875 0 0
0.75 0 0
0.76875 0.270313 0
0.640625 0.267969 0
0.5125 0.265625 0
0.759375 0.135156 0
0.632812 0.133984 0
0.50625 0.132812 0
0.75 0 0
0.625 0 0
0.5 0 0
0.525 0.53125 0
0.39375 0.526563 0
0.2625 0.521875 0
0.51875 0.398438 0
0.389062 0.394922 0
0.259375 0.391406 0
0.5125 0.265625 0
0.384375 0.263281 0
0.25625 0.260937 0
0.2625 0.521875 0
0.13125 0.517187 0
0 0.5125 0
0.259375 0.391406 0
0.129688 0.387891 0
0 0.384375 0
0.25625 0.260937 0
0.128125 0.258594 0
0 0.25625 0
0.5125 0.265625 0
0.384375 0.263281 0
0.25625 0.260937 0
0.50625 0.132812 0
0.379687 0.131641 0
0.253125 0.130469 0
0.5 0 0
0.375 0 0
0.25 0 0
0.25625 0.260937 0
0.128125 0.258594 0
0 0.25625 0
0.253125 0.130469 0
0.126562 0.129297 0
0 0.128125 0
0.25 0 0
0.125 0 0
0 0 0
2 1 0
1.8875 1.0125 0
1.775 1.025 0
2 0.875 0
1.88594 0.885938 0
1.77188 0.896875 0
2 0.75 0
1.88437 0.759375 0
1.76875 0.76875 0
1.775 1.025 0
1.6625 1.0375 0
1.55 1.05 0
1.77188 0.896875 0
1.65781 0.907813 0
1.54375 0.91875 0
1.76875 0.76875 0
1.65313 0.778125 0
1.5375 0.7875 0
2 0.75 0
1.88437 0.759375 0
1.76875 0.76875 0
2 0.625 0
1.88281 0.632812 0
1.76562 0.640625 0
2 0.5 0
1.88125 0.50625 0
1.7625 0.5125 0
1.76875 0.76875 0
1.65313 0.778125 0
1.5375 0.7875 0
1.76562 0.640625 0
1.64844 0.648438 0
1.53125 0.65625 0
1.7625 0.5125 0
1.64375 0.51875 0
1.525 0.525 0
1.55 1.05 0
1.4375 1.0625 0
1.325 1.075 0
1.54375 0.91875 0
1.42969 0.929688 0
1.31563 0.940625 0
1.5375 0.7875 0
1.42188 0.796875 0
1.30625 0.80625 0
1.325 1.075 0
1.2125 1.0875 0
1.1 1.1 0
1.31563 0.940625 0
1.20156 0.951563 0
1.0875 0.9625 0
1.30625 0.80625 0
1.19063 0.815625 0
1.075 0.825 0
1.5375 0.7875 0
1.42188 0.796875 0
1.30625 0.80625 0
1.53125 0.65625 0
1.41406 0.664062 0
1.29688 0.671875 0
1.525 0.525 0
1.40625 0.53125 0
1.2875 0.5375 0
1.30625 0.80625 0
1.19063 0.815625 0
1.075 0.825 0
1.29688 0.671875 0
1.17969 0.679688 0
1.0625 0.6875 0
1.2875 0.5375 0
1.16875 0.54375 0
1.05 0.55 0
2 0.5 0
1.88125 0.50625 0
1.7625 0.5125 0
2 0.375 0
1.87969 0.379687 0
1.75938 0.384375 0
2 0.25 0
1.87813 0.253125 0
1.75625 0.25625 0
1.7625 0.5125 0
1.64375 0.51875 0
1.525 0.525 0
1.75938 0.384375 0
1.63906 0.389063 0
1.51875 0.39375 0
1.75625 0.25625 0
1.63438 0.259375 0
1.5125 0.2625 0
2 0.25 0
1.87813 0.253125 0
1.75625 0.25625 0
2 0.125 0
1.87656 0.126562 0
1.75313 0.128125 0
2 0 0
1.875 0 0
1.75 0 0
1.75625 0.25625 0
1.63438 0.259375 0
1.5125 0.2625 0
1.75313 0.128125 0
1.62969 0.129688 0
1.50625 0.13125 0
1.75 0 0
1.625 0 0
1.5 0 0
1.525 0.525 0
1.40625 0.53125 0
1.2875 0.5375 0
1.51875 0.39375 0
1.39844 0.398438 0
1.27813 0.403125 0
1.5125 0.2625 0
1.39062 0.265625 0
1.26875 0.26875 0
1.2875 0.5375 0
1.16875 0.54375 0
1.05 0.55 0
1.27813 0.403125 0
1.15781 0.407813 0
1.0375 0.4125 0
1.26875 0.26875 0
1.14688 0.271875 0
1.025 0.275 0
1.5125 0.2625 0
1.39062 0.265625 0
1.26875 0.26875 0
1.50625 0.13125 0
1.38281 0.132812 0
1.25937 0.134375 0
1.5 0 0
1.375 0 0
1.25 0 0
1.26875 0.26875 0
1.14688 0.271875 0
1.025 0.275 0
1.25937 0.134375 0
1.13594 0.135938 0
1.0125 0.1375 0
1.25 0 0
1.125 0 0
1 0 0
1 2 0
0.875 2.00625 0
0.75 2.0125 0
1.0125 1.8875 0
0.885938 1.8918 0
0.759375 1.89609 0
1.025 1.775 0
0.896875 1.77734 0
0.76875 1.77969 0
0.75 2.0125 0
0.625 2.01875 0
0.5 2.025 0
0.759375 1.89609 0
0.632812 1.90039 0
0.50625 1.90469 0
0.76875 1.77969 0
0.640625 1.78203 0
0.5125 1.78437 0
1.025 1.775 0
0.896875 1.77734 0
0.76875 1.77969 0
1.0375 1.6625 0
0.907813 1.66289 0
0.778125 1.66328 0
1.05 1.55 0
0.91875 1.54844 0
0.7875 1.54688 0
0.76875 1.77969 0
0.640625 1.78203 0
0.5125 1.78437 0
0.778125 1.66328 0
0.648438 1.66367 0
0.51875 1.66406 0
0.7875 1.54688 0
0.65625 1.54531 0
0.525 1.54375 0
0.5 2.025 0
0.375 2.03125 0
0.25 2.0375 0
0.50625 1.90469 0
0.379687 1.90898 0
0.253125 1.91328 0
0.5125 1.78437 0
0.384375 1.78672 0
0.25625 1.78906 0
0.25 2.0375 0
0.125 2.04375 0
0 2.05 0
0.253125 1.91328 0
0.126562 1.91758 0
0 1.92187 0
0.25625 1.78906 0
0.128125 1.79141 0
0 1.79375 0
0.5125 1.78437 0
0.384375 1.78672 0
0.25625 1.78906 0
0.51875 1.66406 0
0.389062 1.66445 0
0.259375 1.66484 0
0.525 1.54375 0
0.39375 1.54219 0
0.2625 1.54062 0
0.25625 1.78906 0
0.128125 1.79141 0
0 1.79375 0
0.259375 1.66484 0
0.129688 1.66523 0
0 1.66562 0
0.2625 1.54062 0
0.13125 1.53906 0
0 1.5375 0
1.05 1.55 0
0.91875 1.54844 0
0.7875 1.54688 0
1.0625 1.4375 0
0.929688 1.43398 0
0.796875 1.43047 0
1.075 1.325 0
0.940625 1.31953 0
0.80625 1.31406 0
0.7875 1.54688 0
0.65625 1.54531 0
0.525 1.54375 0
0.796875 1.43047 0
0.664062 1.42695 0
0.53125 1.42344 0
0.80625 1.31406 0
0.671875 1.30859 0
0.5375 1.30312 0
1.075 1.325 0
0.940625 1.31953 0
0.80625 1.31406 0
1.0875 1.2125 0
0.951563 1.20508 0
0.815625 1.19766 0
1.1 1.1 0
0.9625 1.09063 0
0.825 1.08125 0
0.80625 1.31406 0
0.671875 1.30859 0
0.5375 1.30312 0
0.815625 1.19766 0
0.679688 1.19023 0
0.54375 1.18281 0
0.825 1.08125 0
0.6875 1.07187 0
0.55 1.0625 0
0.525 1.54375 0
0.39375 1.54219 0
0.2625 1.54062 0
0.53125 1.42344 0
0.398438 1.41992 0
0.265625 1.41641 0
0.5375 1.30312 0
0.403125 1.29766 0
0.26875 1.29219 0
0.2625 1.54062 0
0.13125 1.53906 0
0 1.5375 0
0.265625 1.41641 0
0.132812 1.41289 0
0 1.40937 0
0.26875 1.29219 0
0.134375 1.28672 0
0 1.28125 0
0.5375 1.30312 0
0.403125 1.29766 0
0.26875 1.29219 0
0.54375 1.18281 0
0.407813 1.17539 0
0.271875 1.16797 0
0.55 1.0625 0
0.4125 1.05313 0
0.275 1.04375 0
0.26875 1.29219 0
0.134375 1.28672 0
0 1.28125 0
0.271875 1.16797 0
0.135938 1.16055 0
0 1.15312 0
0.275 1.04375 0
0.1375 1.03437 0
0 1.025 0
2.9 1.1 0
2.7875 1.0875 0
2.675 1.075 0
2.9125 0.9625 0
2.79844 0.951563 0
2.68438 0.940625 0
2.925 0.825 0
2.80938 0.815625 0
2.69375 0.80625 0
2.675 1.075 0
2.5625 1.0625 0
2.45 1.05 0
2.68438 0.940625 0
2.57031 0.929688 0
2.45625 0.91875 0
2.69375 0.80625 0
2.57812 0.796875 0
2.4625 0.7875 0
2.925 0.825 0
2.80938 0.815625 0
2.69375 0.80625 0
2.9375 0.6875 0
2.82031 0.679688 0
2.70312 0.671875 0
2.95 0.55 0
2.83125 0.54375 0
2.7125 0.5375 0
2.69375 0.80625 0
2.57812 0.796875 0
2.4625 0.7875 0
2.70312 0.671875 0
2.58594 0.664062 0
2.46875 0.65625 0
2.7125 0.5375 0
2.59375 0.53125 0
2.475 0.525 0
2.45 1.05 0
2.3375 1.0375 0
2.225 1.025 0
2.45625 0.91875 0
2.34219 0.907813 0
2.22813 0.896875 0
2.4625 0.7875 0
2.34688 0.778125 0
2.23125 0.76875 0
2.225 1.025 0
2.1125 1.0125 0
2 1 0
2.22813 0.896875 0
2.11406 0.885938 0
2 0.875 0
2.23125 0.76875 0
2.11563 0.759375 0
2 0.75 0
2.4625 0.7875 0
2.34688 0.778125 0
2.23125 0.76875 0
2.46875 0.65625 0
2.35156 0.648438 0
2.23438 0.640625 0
2.475 0.525 0
2.35625 0.51875 0
2.2375 0.5125 0
2.23125 0.76875 0
2.11563 0.759375 0
2 0.75 0
2.23438 0.640625 0
2.11719 0.632812 0
2 0.625 0
2.2375 0.5125 0
2.11875 0.50625 0
2 0.5 0
2.95 0.55 0
2.83125 0.54375 0
2.7125 0.5375 0
2.9625 0.4125 0
2.84219 0.407813 0
2.72188 0.403125 0
2.975 0.275 0
2.85313 0.271875 0
2.73125 0.26875 0
2.7125 0.5375 0
2.59375 0.53125 0
2.475 0.525 0
2.72188 0.403125 0
2.60156 0.398438 0
2.48125 0.39375 0
2.73125 0.26875 0
2.60938 0.265625 0
2.4875 0.2625 0
2.975 0.275 0
2.85313 0.271875 0
2.73125 0.26875 0
2.9875 0.1375 0
2.86406 0.135938 0
2.74063 0.134375 0
3 0 0
2.875 0 0
2.75 0 0
2.73125 0.26875 0
2.60938 0.265625 0
2.4875 0.2625 0
2.74063 0.134375 0
2.61719 0.132812 0
2.49375 0.13125 0
2.75 0 0
2.625 0 0
2.5 0 0
2.475 0.525 0
2.35625 0.51875 0
2.2375 0.5125 0
2.48125 0.39375 0
2.36094 0.389063 0
2.24062 0.384375 0
2.4875 0.2625 0
2.36562 0.259375 0
2.24375 0.25625 0
2.2375 0.5125 0
2.11875 0.50625 0
2 0.5 0
2.24062 0.384375 0
2.12031 0.379687 0
2 0.375 0
2.24375 0.25625 0
2.12188 0.253125 0
2 0.25 0
2.4875 0.2625 0
2.36562 0.259375 0
2.24375 0.25625 0
2.49375 0.13125 0
2.37031 0.129688 0
2.24688 0.128125 0
2.5 0 0
2.375 0 0
2.25 0 0
2.24375 0.25625 0
2.12188 0.253125 0
2 0.25 0
2.24688 0.128125 0
2.12344 0.126562 0
2 0.125 0
2.25 0 0
2.125 0 0
2 0 0
4 1 0
3.8625 1.0125 0
3.725 1.025 0
4 0.875 0
3.86406 0.885938 0
3.72813 0.896875 0
4 0.75 0
3.86563 0.759375 0
3.73125 0.76875 0
3.725 1.025 0
3.5875 1.0375 0
3.45 1.05 0
3.72813 0.896875 0
3.59219 0.907813 0
3.45625 0.91875 0
3.73125 0.76875 0
3.59688 0.778125 0
3.4625 0.7875 0
4 0.75 0
3.86563 0.759375 0
3.73125 0.76875 0
4 0.625 0
[...]
POINT_DATA 8640
VECTORS v double
1.2009 -0.229323 0
1.18278 -0.179168 0
1.17047 -0.13387 0
1.12878 -0.206759 0
1.10301 -0.163397 0
1.08734 -0.127352 0
1.04131 -0.180698 0
1.01463 -0.14478 0
0.990454 -0.11272 0
1.17047 -0.13387 0
1.1605 -0.101094 0
1.15331 -0.0718169 0
1.08734 -0.127352 0
1.07023 -0.0961307 0
1.06057 -0.0708672 0
0.990454 -0.11272 0
0.971359 -0.0857496 0
0.955175 -0.0629213 0
1.04131 -0.180698 0
1.01463 -0.14478 0
0.990454 -0.11272 0
0.929758 -0.142902 0
0.898389 -0.115661 0
0.871932 -0.0914645 0
0.797069 -0.112389 0
0.765886 -0.0917591 0
0.739363 -0.072975 0
0.990454 -0.11272 0
0.971359 -0.0857496 0
0.955175 -0.0629213 0
0.871932 -0.0914645 0
0.850341 -0.070593 0
0.832751 -0.0524521 0
0.739363 -0.072975 0
0.717179 -0.0564436 0
0.699154 -0.0420288 0
1.15331 -0.0718169 0
1.14592 -0.0507385 0
1.13957 -0.0308067 0
1.06057 -0.0708672 0
1.04831 -0.0496173 0
1.04167 -0.0317773 0
0.955175 -0.0629213 0
0.94201 -0.0440157 0
0.931597 -0.027989 0
1.13957 -0.0308067 0
1.13219 -0.0155049 0
1.125 0 0
1.04167 -0.0317773 0
1.03158 -0.0156096 0
1.02539 0 0
0.931597 -0.027989 0
0.921533 -0.0136005 0
0.914062 0 0
0.955175 -0.0629213 0
0.94201 -0.0440157 0
0.931597 -0.027989 0
0.832751 -0.0524521 0
0.818533 -0.0368522 0
0.807521 -0.0237831 0
0.699154 -0.0420288 0
0.684025 -0.0296741 0
0.672521 -0.0192598 0
0.931597 -0.027989 0
0.921533 -0.0136005 0
0.914062 0 0
0.807521 -0.0237831 0
0.797992 -0.0119294 0
0.791016 0 0
0.672521 -0.0192598 0
0.66283 -0.00969721 0
0.65625 0 0
0.797069 -0.112389 0
0.765886 -0.0917591 0
0.739363 -0.072975 0
0.648341 -0.0755398 0
0.616604 -0.0615754 0
0.589618 -0.0487796 0
0.477474 -0.0449842 0
0.447588 -0.0369953 0
0.422581 -0.0296784 0
0.739363 -0.072975 0
0.717179 -0.0564436 0
0.699154 -0.0420288 0
0.589618 -0.0487796 0
0.567253 -0.0375117 0
0.549268 -0.0278066 0
0.422581 -0.0296784 0
0.401832 -0.0231059 0
0.385622 -0.0174823 0
0.477474 -0.0449842 0
0.447588 -0.0369953 0
0.422581 -0.0296784 0
0.270497 -0.0130042 0
0.248191 -0.0103692 0
0.230606 -0.00810136 0
0 0 0
0 0 0
0 0 0
0.422581 -0.0296784 0
0.401832 -0.0231059 0
0.385622 -0.0174823 0
0.230606 -0.00810136 0
0.215697 -0.00608866 0
0.204511 -0.00450448 0
0 0 0
0 0 0
0 0 0
0.699154 -0.0420288 0
0.684025 -0.0296741 0
0.672521 -0.0192598 0
0.549268 -0.0278066 0
0.534616 -0.0195969 0
0.523663 -0.0126064 0
0.385622 -0.0174823 0
0.372604 -0.0126657 0
0.3632 -0.00857276 0
0.672521 -0.0192598 0
0.66283 -0.00969721 0
0.65625 0 0
0.523663 -0.0126064 0
0.515131 -0.00613402 0
0.509766 0 0
0.3632 -0.00857276 0
0.355963 -0.0046521 0
0.351562 0 0
0.385622 -0.0174823 0
0.372604 -0.0126657 0
0.3632 -0.00857276 0
0.204511 -0.00450448 0
0.195475 -0.00313018 0
0.189071 -0.00201743 0
0 0 0
0 0 0
0 0 0
0.3632 -0.00857276 0
0.355963 -0.0046521 0
0.351562 0 0
0.189071 -0.00201743 0
0.184237 -0.000928504 0
0.181641 0 0
0 0 0
0 0 0
0 0 0
1.62864 -0.446848 0
1.53845 -0.464672 0
1.47627 -0.464808 0
1.49586 -0.364649 0
1.42701 -0.37641 0
1.36423 -0.378193 0
1.36797 -0.292103 0
1.31587 -0.309359 0
1.26223 -0.313975 0
1.47627 -0.464808 0
1.3932 -0.441182 0
1.33578 -0.408183 0
1.36423 -0.378193 0
1.3013 -0.365853 0
1.24775 -0.345396 0
1.26223 -0.313975 0
1.21411 -0.308706 0
1.16495 -0.292253 0
1.36797 -0.292103 0
1.31587 -0.309359 0
1.26223 -0.313975 0
1.25829 -0.229278 0
1.20815 -0.237999 0
1.15694 -0.239233 0
1.10613 -0.162925 0
1.05792 -0.171426 0
1.00847 -0.174776 0
1.26223 -0.313975 0
1.21411 -0.308706 0
1.16495 -0.292253 0
1.15694 -0.239233 0
1.10748 -0.233694 0
1.05916 -0.221899 0
1.00847 -0.174776 0
0.963523 -0.173769 0
0.919662 -0.167845 0
1.33578 -0.408183 0
1.27823 -0.366094 0
1.24523 -0.320288 0
1.24775 -0.345396 0
1.20383 -0.314268 0
1.17007 -0.28042 0
1.16495 -0.292253 0
1.1266 -0.269145 0
1.08988 -0.240727 0
1.24523 -0.320288 0
1.21475 -0.274911 0
1.2009 -0.229323 0
1.17007 -0.28042 0
1.1444 -0.242671 0
1.12878 -0.206759 0
1.08988 -0.240727 0
1.06439 -0.211073 0
1.04131 -0.180698 0
1.16495 -0.292253 0
1.1266 -0.269145 0
1.08988 -0.240727 0
1.05916 -0.221899 0
1.01885 -0.205816 0
0.981933 -0.186168 0
0.919662 -0.167845 0
0.882726 -0.157849 0
0.848607 -0.144536 0
1.08988 -0.240727 0
1.06439 -0.211073 0
1.04131 -0.180698 0
0.981933 -0.186168 0
0.95373 -0.165103 0
0.929758 -0.142902 0
0.848607 -0.144536 0
0.821031 -0.12915 0
0.797069 -0.112389 0
1.10613 -0.162925 0
1.05792 -0.171426 0
1.00847 -0.174776 0
0.955862 -0.115301 0
0.911657 -0.121172 0
0.864959 -0.12315 0
0.783897 -0.0617941 0
0.741051 -0.0663057 0
0.694919 -0.068397 0
1.00847 -0.174776 0
0.963523 -0.173769 0
0.919662 -0.167845 0
0.864959 -0.12315 0
0.821785 -0.121394 0
0.778159 -0.11605 0
0.694919 -0.068397 0
0.651818 -0.0682166 0
0.608359 -0.0659422 0
0.783897 -0.0617941 0
0.741051 -0.0663057 0
0.694919 -0.068397 0
0.502489 -0.019498 0
0.472438 -0.0212028 0
0.438291 -0.0218833 0
0 0 0
0 0 0
0 0 0
0.694919 -0.068397 0
0.651818 -0.0682166 0
0.608359 -0.0659422 0
0.438291 -0.0218833 0
0.405958 -0.0218625 0
0.372731 -0.0208575 0
0 0 0
0 0 0
0 0 0
0.919662 -0.167845 0
0.882726 -0.157849 0
0.848607 -0.144536 0
0.778159 -0.11605 0
0.740313 -0.108196 0
0.704443 -0.0981912 0
0.608359 -0.0659422 0
0.570293 -0.0622288 0
0.534412 -0.0572181 0
0.848607 -0.144536 0
0.821031 -0.12915 0
0.797069 -0.112389 0
0.704443 -0.0981912 0
0.674559 -0.0872755 0
0.648341 -0.0755398 0
0.534412 -0.0572181 0
0.504034 -0.051446 0
0.477474 -0.0449842 0
0.608359 -0.0659422 0
0.570293 -0.0622288 0
0.534412 -0.0572181 0
0.372731 -0.0208575 0
0.342936 -0.0194263 0
0.315285 -0.0174139 0
0 0 0
0 0 0
0 0 0
0.534412 -0.0572181 0
0.504034 -0.051446 0
0.477474 -0.0449842 0
0.315285 -0.0174139 0
0.290943 -0.0152917 0
0.270497 -0.0130042 0
0 0 0
0 0 0
0 0 0
1.25186 0.0799971 0
1.32374 0.0765987 0
1.38031 0.0694413 0
1.25419 0.00721906 0
1.32047 0.0205713 0
1.37668 0.0290139 0
1.23704 -0.0611164 0
1.30142 -0.0318201 0
1.35662 -0.0114016 0
1.38031 0.0694413 0
1.42121 0.0612506 0
1.45133 0.0505715 0
1.37668 0.0290139 0
1.41543 0.030359 0
1.44638 0.0283097 0
1.35662 -0.0114016 0
1.39493 -0.00056924 0
1.42613 0.0053185 0
1.23704 -0.0611164 0
1.30142 -0.0318201 0
1.35662 -0.0114016 0
1.25003 -0.13558 0
1.30158 -0.0883959 0
1.3471 -0.0540629 0
1.25496 -0.173017 0
1.2912 -0.120573 0
1.32516 -0.0805081 0
1.35662 -0.0114016 0
1.39493 -0.00056924 0
1.42613 0.0053185 0
1.3471 -0.0540629 0
1.3787 -0.0333656 0
1.40556 -0.0190469 0
1.32516 -0.0805081 0
1.34984 -0.0547574 0
1.37206 -0.0349639 0
1.45133 0.0505715 0
1.47362 0.0393903 0
1.48736 0.0266193 0
1.44638 0.0283097 0
1.46763 0.0231041 0
1.48213 0.0164766 0
1.42613 0.0053185 0
1.448 0.00688618 0
1.4637 0.0061088 0
1.48736 0.0266193 0
1.49749 0.0137407 0
1.5 0 0
1.48213 0.0164766 0
1.49111 0.00888649 0
1.49414 0 0
1.4637 0.0061088 0
1.47307 0.00366787 0
1.47656 0 0
1.42613 0.0053185 0
1.448 0.00688618 0
1.4637 0.0061088 0
1.40556 -0.0190469 0
1.42369 -0.0109684 0
1.4375 -0.00561251 0
1.37206 -0.0349639 0
1.38672 -0.0223319 0
1.39871 -0.0126016 0
1.4637 0.0061088 0
1.47307 0.00366787 0
1.47656 0 0
1.4375 -0.00561251 0
1.44445 -0.00242493 0
1.44727 0 0
1.39871 -0.0126016 0
1.40401 -0.00594415 0
1.40625 0 0
1.25496 -0.173017 0
1.2912 -0.120573 0
1.32516 -0.0805081 0
1.25189 -0.21684 0
1.27714 -0.158239 0
1.29873 -0.111382 0
1.25152 -0.229312 0
1.25956 -0.171163 0
1.26722 -0.123484 0
1.32516 -0.0805081 0
1.34984 -0.0547574 0
1.37206 -0.0349639 0
1.29873 -0.111382 0
1.31697 -0.0802493 0
1.33204 -0.054299 0
1.26722 -0.123484 0
1.27555 -0.0900095 0
1.28309 -0.0619382 0
1.25152 -0.229312 0
1.25956 -0.171163 0
1.26722 -0.123484 0
1.22462 -0.235674 0
1.22526 -0.184212 0
1.21944 -0.134942 0
1.2009 -0.229323 0
1.18278 -0.179168 0
1.17047 -0.13387 0
1.26722 -0.123484 0
1.27555 -0.0900095 0
1.28309 -0.0619382 0
1.21944 -0.134942 0
1.22251 -0.101932 0
1.2209 -0.0712933 0
1.17047 -0.13387 0
1.1605 -0.101094 0
1.15331 -0.0718169 0
1.37206 -0.0349639 0
1.38672 -0.0223319 0
1.39871 -0.0126016 0
1.33204 -0.054299 0
1.34246 -0.0369047 0
1.34992 -0.0224939 0
1.28309 -0.0619382 0
1.28738 -0.0425499 0
1.29042 -0.0255773 0
1.39871 -0.0126016 0
1.40401 -0.00594415 0
1.40625 0 0
1.34992 -0.0224939 0
1.35323 -0.0117254 0
1.35352 0 0
1.29042 -0.0255773 0
1.29055 -0.0126911 0
1.28906 0 0
1.28309 -0.0619382 0
1.28738 -0.0425499 0
1.29042 -0.0255773 0
1.2209 -0.0712933 0
1.22211 -0.0512365 0
1.21941 -0.0309989 0
1.15331 -0.0718169 0
1.14592 -0.0507385 0
1.13957 -0.0308067 0
1.29042 -0.0255773 0
1.29055 -0.0126911 0
1.28906 0 0
1.21941 -0.0309989 0
1.21779 -0.0160581 0
1.21289 0 0
1.13957 -0.0308067 0
1.13219 -0.0155049 0
1.125 0 0
2.00615 -0.136513 0
1.94319 -0.154069 0
1.96076 -0.214006 0
1.93352 -0.0828686 0
1.90138 -0.132033 0
1.85925 -0.172146 0
1.80454 -0.0454969 0
1.7534 -0.0836191 0
1.72117 -0.120634 0
1.96076 -0.214006 0
1.89916 -0.249849 0
1.90165 -0.301812 0
1.85925 -0.172146 0
1.82296 -0.209908 0
1.78211 -0.252426 0
1.72117 -0.120634 0
1.6656 -0.156555 0
1.62005 -0.19193 0
1.80454 -0.0454969 0
1.7534 -0.0836191 0
1.72117 -0.120634 0
1.62827 -0.018637 0
1.5972 -0.0589386 0
1.56421 -0.0956103 0
1.47325 0.00329962 0
1.44656 -0.0294582 0
1.41807 -0.0591112 0
1.72117 -0.120634 0
1.6656 -0.156555 0
1.62005 -0.19193 0
1.56421 -0.0956103 0
1.52432 -0.129189 0
1.48347 -0.159105 0
1.41807 -0.0591112 0
1.3787 -0.0851939 0
1.33563 -0.10781 0
1.90165 -0.301812 0
1.83455 -0.349769 0
1.81033 -0.399564 0
1.78211 -0.252426 0
1.71919 -0.292837 0
1.64947 -0.325343 0
1.62005 -0.19193 0
1.55878 -0.227875 0
1.50481 -0.257254 0
1.81033 -0.399564 0
1.69639 -0.418476 0
1.62864 -0.446848 0
1.64947 -0.325343 0
1.57177 -0.3497 0
1.49586 -0.364649 0
1.50481 -0.257254 0
1.43667 -0.278826 0
1.36797 -0.292103 0
1.62005 -0.19193 0
1.55878 -0.227875 0
1.50481 -0.257254 0
1.48347 -0.159105 0
1.43321 -0.184476 0
1.38021 -0.205115 0
1.33563 -0.10781 0
1.28398 -0.127836 0
1.22923 -0.144142 0
1.50481 -0.257254 0
1.43667 -0.278826 0
1.36797 -0.292103 0
1.38021 -0.205115 0
1.31988 -0.220542 0
1.25829 -0.229278 0
1.22923 -0.144142 0
1.16993 -0.156138 0
1.10613 -0.162925 0
1.47325 0.00329962 0
1.44656 -0.0294582 0
1.41807 -0.0591112 0
1.28766 0.0203357 0
1.26659 -0.00539123 0
1.2389 -0.0291988 0
1.04341 0.0319694 0
1.03695 0.0153908 0
1.02124 -0.000688674 0
1.41807 -0.0591112 0
1.3787 -0.0851939 0
1.33563 -0.10781 0
1.2389 -0.0291988 0
1.20373 -0.0508314 0
1.16332 -0.0702363 0
1.02124 -0.000688674 0
0.997383 -0.0155214 0
0.965439 -0.0291268 0
1.04341 0.0319694 0
1.03695 0.0153908 0
1.02124 -0.000688674 0
0.645139 0.0113942 0
0.65251 0.00637238 0
0.652592 0.00131073 0
0 0 0
0 0 0
0 0 0
1.02124 -0.000688674 0
0.997383 -0.0155214 0
0.965439 -0.0291268 0
0.652592 0.00131073 0
0.64372 -0.0033975 0
0.627786 -0.0077809 0
0 0 0
0 0 0
0 0 0
1.33563 -0.10781 0
1.28398 -0.127836 0
1.22923 -0.144142 0
1.16332 -0.0702363 0
1.11722 -0.0868118 0
1.06618 -0.0999077 0
0.965439 -0.0291268 0
0.92742 -0.04082 0
0.882982 -0.0504412 0
1.22923 -0.144142 0
1.16993 -0.156138 0
1.10613 -0.162925 0
1.06618 -0.0999077 0
1.01277 -0.109269 0
0.955862 -0.115301 0
0.882982 -0.0504412 0
0.835944 -0.0574434 0
0.783897 -0.0617941 0
0.965439 -0.0291268 0
0.92742 -0.04082 0
0.882982 -0.0504412 0
0.627786 -0.0077809 0
0.604813 -0.0115572 0
0.575097 -0.0149626 0
0 0 0
0 0 0
0 0 0
0.882982 -0.0504412 0
0.835944 -0.0574434 0
0.783897 -0.0617941 0
0.575097 -0.0149626 0
0.541604 -0.0176823 0
0.502489 -0.019498 0
0 0 0
0 0 0
0 0 0
1.78106 0.574216 0
1.94798 0.536043 0
2.09252 0.459551 0
1.62595 0.503837 0
1.71464 0.464383 0
1.82388 0.415776 0
1.4629 0.408723 0
1.55247 0.389642 0
1.62431 0.343461 0
2.09252 0.459551 0
2.16679 0.332576 0
2.20498 0.197118 0
1.82388 0.415776 0
1.91177 0.347411 0
1.98234 0.256381 0
1.62431 0.343461 0
1.67529 0.287148 0
1.73476 0.220048 0
1.4629 0.408723 0
1.55247 0.389642 0
1.62431 0.343461 0
1.31928 0.33672 0
1.40348 0.318713 0
1.49469 0.291163 0
1.07928 0.236692 0
1.19249 0.239934 0
1.28008 0.226735 0
1.62431 0.343461 0
1.67529 0.287148 0
1.73476 0.220048 0
1.49469 0.291163 0
1.54961 0.2466 0
1.6001 0.196123 0
1.28008 0.226735 0
1.35213 0.203241 0
1.40749 0.169631 0
2.20498 0.197118 0
2.166 0.0670397 0
2.10932 -0.032396 0
1.98234 0.256381 0
1.99618 0.159524 0
1.98803 0.0684944 0
1.73476 0.220048 0
1.76345 0.145535 0
1.79546 0.0765639 0
2.10932 -0.032396 0
2.05527 -0.0979497 0
2.00615 -0.136513 0
1.98803 0.0684944 0
1.96345 -0.00996215 0
1.93352 -0.0828686 0
1.79546 0.0765639 0
1.79913 0.0113567 0
1.80454 -0.0454969 0
1.73476 0.220048 0
1.76345 0.145535 0
1.79546 0.0765639 0
1.6001 0.196123 0
1.62167 0.140256 0
1.63686 0.0851347 0
1.40749 0.169631 0
1.4423 0.129243 0
1.46559 0.0870189 0
1.79546 0.0765639 0
1.79913 0.0113567 0
1.80454 -0.0454969 0
1.63686 0.0851347 0
1.63508 0.0320293 0
1.62827 -0.018637 0
1.46559 0.0870189 0
1.47272 0.0445895 0
1.47325 0.00329962 0
1.07928 0.236692 0
1.19249 0.239934 0
1.28008 0.226735 0
0.853984 0.149443 0
0.94649 0.150514 0
1.04585 0.150358 0
0.573654 0.0768972 0
0.656088 0.0815233 0
0.73298 0.0859472 0
1.28008 0.226735 0
1.35213 0.203241 0
1.40749 0.169631 0
1.04585 0.150358 0
1.12386 0.141152 0
1.19233 0.126442 0
0.73298 0.0859472 0
0.812535 0.0871624 0
0.883205 0.0843181 0
0.573654 0.0768972 0
0.656088 0.0815233 0
0.73298 0.0859472 0
0.317882 0.0161663 0
0.367325 0.0164483 0
0.404319 0.01724 0
0 0 0
0 0 0
0 0 0
0.73298 0.0859472 0
0.812535 0.0871624 0
0.883205 0.0843181 0
0.404319 0.01724 0
0.451458 0.018991 0
0.494779 0.0203276 0
0 0 0
0 0 0
0 0 0
1.40749 0.169631 0
1.4423 0.129243 0
1.46559 0.0870189 0
1.19233 0.126442 0
1.23708 0.104155 0
1.26927 0.0783835 0
0.883205 0.0843181 0
0.94489 0.0758482 0
0.992014 0.0638482 0
1.46559 0.0870189 0
1.47272 0.0445895 0
1.47325 0.00329962 0
1.26927 0.0783835 0
1.28386 0.0497209 0
1.28766 0.0203357 0
0.992014 0.0638482 0
1.02511 0.0489412 0
1.04341 0.0319694 0
0.883205 0.0843181 0
0.94489 0.0758482 0
0.992014 0.0638482 0
0.494779 0.0203276 0
0.540282 0.0204273 0
0.580979 0.0187641 0
0 0 0
0 0 0
0 0 0
0.992014 0.0638482 0
1.02511 0.0489412 0
1.04341 0.0319694 0
0.580979 0.0187641 0
0.616527 0.0155938 0
0.645139 0.0113942 0
0 0 0
0 0 0
0 0 0
0.864431 0.463596 0
0.741143 -0.150332 0
0.40758 -0.642195 0
1.16069 0.62696 0
0.946937 0.0548313 0
0.690868 -0.375733 0
1.44983 0.818578 0
1.2661 0.29407 0
1.02783 -0.106292 0
0.40758 -0.642195 0
0.220881 -1.05262 0
-0.10735 -1.41853 0
0.690868 -0.375733 0
0.40076 -0.744771 0
-0.0275101 -1.15329 0
1.02783 -0.106292 0
0.679457 -0.516019 0
0.264367 -0.87256 0
1.44983 0.818578 0
1.2661 0.29407 0
1.02783 -0.106292 0
1.67658 0.903123 0
1.49653 0.511772 0
1.36775 0.169454 0
2.01668 0.970669 0
1.74773 0.580964 0
1.65317 0.332596 0
1.02783 -0.106292 0
0.679457 -0.516019 0
0.264367 -0.87256 0
1.36775 0.169454 0
1.03747 -0.259168 0
0.758682 -0.52566 0
1.65317 0.332596 0
1.34658 -0.0609515 0
1.13927 -0.241199 0
-0.10735 -1.41853 0
-0.0969986 -1.57471 0
-0.0559811 -1.36027 0
-0.0275101 -1.15329 0
-0.21087 -1.46366 0
-0.25351 -1.21938 0
0.264367 -0.87256 0
-0.0697 -1.29547 0
-0.263086 -1.10305 0
-0.0559811 -1.36027 0
-0.262745 -1.15702 0
-0.349592 -0.815071 0
-0.25351 -1.21938 0
-0.502455 -0.975559 0
-0.607952 -0.687919 0
-0.263086 -1.10305 0
-0.517419 -0.822875 0
-0.652861 -0.605857 0
0.264367 -0.87256 0
-0.0697 -1.29547 0
-0.263086 -1.10305 0
0.758682 -0.52566 0
0.348417 -0.855966 0
0.0188081 -0.83961 0
1.13927 -0.241199 0
0.780829 -0.494215 0
0.463106 -0.589282 0
-0.263086 -1.10305 0
-0.517419 -0.822875 0
-0.652861 -0.605857 0
0.0188081 -0.83961 0
-0.259492 -0.730439 0
-0.359039 -0.549129 0
0.463106 -0.589282 0
0.23237 -0.57073 0
0.0491113 -0.420637 0
2.01668 0.970669 0
1.74773 0.580964 0
1.65317 0.332596 0
2.05332 0.979252 0
2.03229 0.733014 0
1.92418 0.482146 0
1.98103 0.829887 0
2.06438 0.72771 0
2.08949 0.579612 0
1.65317 0.332596 0
1.34658 -0.0609515 0
1.13927 -0.241199 0
1.92418 0.482146 0
1.71895 0.148903 0
1.46134 -0.100897 0
2.08949 0.579612 0
1.99825 0.362874 0
1.83315 0.159456 0
1.98103 0.829887 0
2.06438 0.72771 0
2.08949 0.579612 0
1.95018 0.743828 0
2.05078 0.665123 0
2.10464 0.548736 0
1.78106 0.574216 0
1.94798 0.536043 0
2.09252 0.459551 0
2.08949 0.579612 0
1.99825 0.362874 0
1.83315 0.159456 0
2.10464 0.548736 0
2.0917 0.383684 0
2.02473 0.215833 0
2.09252 0.459551 0
2.16679 0.332576 0
2.20498 0.197118 0
1.13927 -0.241199 0
0.780829 -0.494215 0
0.463106 -0.589282 0
1.46134 -0.100897 0
1.19777 -0.302268 0
0.869856 -0.409676 0
1.83315 0.159456 0
1.58638 0.00382479 0
1.29605 -0.0879137 0
0.463106 -0.589282 0
0.23237 -0.57073 0
0.0491113 -0.420637 0
0.869856 -0.409676 0
0.649918 -0.39291 0
0.356898 -0.31697 0
1.29605 -0.0879137 0
1.07376 -0.105294 0
0.852703 -0.0730958 0
1.83315 0.159456 0
1.58638 0.00382479 0
1.29605 -0.0879137 0
2.02473 0.215833 0
1.89014 0.0606071 0
1.73541 -0.0479014 0
2.20498 0.197118 0
2.166 0.0670397 0
2.10932 -0.032396 0
1.29605 -0.0879137 0
1.07376 -0.105294 0
0.852703 -0.0730958 0
1.73541 -0.0479014 0
1.63208 -0.111291 0
1.54859 -0.132247 0
2.10932 -0.032396 0
2.05527 -0.0979497 0
2.00615 -0.136513 0
0.981141 0.13495 0
1.02911 -0.0218427 0
1.07163 -0.13968 0
0.754252 0.122354 0
0.906199 -0.0692594 0
0.982525 -0.20942 0
0.443829 -0.0217672 0
0.626482 -0.200232 0
0.787275 -0.293135 0
1.07163 -0.13968 0
1.21268 -0.28863 0
1.29781 -0.391835 0
0.982525 -0.20942 0
1.10913 -0.380523 0
1.1954 -0.522692 0
0.787275 -0.293135 0
0.924956 -0.48827 0
1.03127 -0.647501 0
0.443829 -0.0217672 0
0.626482 -0.200232 0
0.787275 -0.293135 0
0.318842 -0.0443704 0
0.437454 -0.381319 0
0.628924 -0.509662 0
0.224782 -0.0481991 0
0.29761 -0.404125 0
0.471823 -0.688882 0
0.787275 -0.293135 0
0.924956 -0.48827 0
1.03127 -0.647501 0
0.628924 -0.509662 0
0.802839 -0.655407 0
0.9612 -0.86501 0
0.471823 -0.688882 0
0.705288 -0.803023 0
0.851845 -1.02808 0
1.29781 -0.391835 0
1.47922 -0.487586 0
1.59057 -0.510721 0
1.1954 -0.522692 0
1.36894 -0.641416 0
1.5106 -0.683205 0
1.03127 -0.647501 0
1.28777 -0.805118 0
1.57419 -0.85874 0
1.59057 -0.510721 0
1.72348 -0.502595 0
1.81795 -0.451724 0
1.5106 -0.683205 0
1.71981 -0.694815 0
1.91566 -0.662454 0
1.57419 -0.85874 0
1.86172 -0.875107 0
2.09806 -0.793068 0
1.03127 -0.647501 0
1.28777 -0.805118 0
1.57419 -0.85874 0
0.9612 -0.86501 0
1.27271 -1.02506 0
1.55221 -1.09742 0
0.851845 -1.02808 0
1.14382 -1.20314 0
1.34381 -1.28571 0
1.57419 -0.85874 0
1.86172 -0.875107 0
2.09806 -0.793068 0
1.55221 -1.09742 0
1.74026 -1.10888 0
1.81262 -0.906018 0
1.34381 -1.28571 0
1.4151 -1.23923 0
1.3587 -0.888735 0
0.224782 -0.0481991 0
0.29761 -0.404125 0
0.471823 -0.688882 0
0.273222 -0.0531217 0
0.249258 -0.529543 0
0.275152 -0.915082 0
0.439937 0.181963 0
0.305971 -0.438474 0
0.178117 -0.971055 0
0.471823 -0.688882 0
0.705288 -0.803023 0
0.851845 -1.02808 0
0.275152 -0.915082 0
0.525064 -1.0609 0
0.634461 -1.23003 0
0.178117 -0.971055 0
0.340033 -1.21909 0
0.386218 -1.36435 0
0.439937 0.181963 0
0.305971 -0.438474 0
0.178117 -0.971055 0
0.607008 0.267256 0
0.456339 -0.342258 0
0.211536 -0.85625 0
0.864431 0.463596 0
0.741143 -0.150332 0
0.40758 -0.642195 0
0.178117 -0.971055 0
0.340033 -1.21909 0
0.386218 -1.36435 0
0.211536 -0.85625 0
0.19562 -1.23498 0
0.0976277 -1.41582 0
0.40758 -0.642195 0
0.220881 -1.05262 0
-0.10735 -1.41853 0
0.851845 -1.02808 0
1.14382 -1.20314 0
1.34381 -1.28571 0
0.634461 -1.23003 0
0.857836 -1.39717 0
0.986795 -1.41969 0
0.386218 -1.36435 0
0.536978 -1.52201 0
0.627594 -1.48101 0
1.34381 -1.28571 0
1.4151 -1.23923 0
1.3587 -0.888735 0
0.986795 -1.41969 0
0.951265 -1.22926 0
0.851976 -0.714715 0
0.627594 -1.48101 0
0.491662 -1.21375 0
0.404312 -0.690313 0
0.386218 -1.36435 0
0.536978 -1.52201 0
0.627594 -1.48101 0
0.0976277 -1.41582 0
0.190622 -1.53964 0
0.260283 -1.42176 0
-0.10735 -1.41853 0
-0.0969986 -1.57471 0
-0.0559811 -1.36027 0
0.627594 -1.48101 0
0.491662 -1.21375 0
0.404312 -0.690313 0
0.260283 -1.42176 0
0.0658784 -1.1702 0
-0.0185542 -0.705522 0
-0.0559811 -1.36027 0
-0.262745 -1.15702 0
-0.349592 -0.815071 0
0 0 0
0 0 0
0 0 0
0.265496 0.0048649 0
0.255133 -0.000137996 0
0.264444 -0.00520233 0
0.601095 0.0235517 0
0.598814 0.0115315 0
0.602005 -0.00155379 0
0 0 0
0 0 0
0 0 0
0.264444 -0.00520233 0
0.272451 -0.00957178 0
0.294202 -0.01406 0
0.602005 -0.00155379 0
0.615222 -0.017506 0