# vtk DataFile Version 3.0
#This file was generated by the deal.II library on 2025/1/4 at 9:48:29
ASCII
DATASET UNSTRUCTURED_GRID

POINTS 8640 double
1.1 1.1 0
0.9625 1.09063 0
0.825 1.08125 0
1.0875 0.9625 0
0.951563 0.954297 0
0.815625 0.946094 0
1.075 0.825 0
0.940625 0.817969 0
0.80625 0.810937 0
0.825 1.08125 0
0.6875 1.07187 0
0.55 1.0625 0
0.815625 0.946094 0
0.679688 0.937891 0
0.54375 0.929688 0
0.80625 0.810937 0
0.671875 0.803906 0
0.5375 0.796875 0
1.075 0.825 0
0.940625 0.817969 0
0.80625 0.810937 0
1.0625 0.6875 0
0.929688 0.681641 0
0.796875 0.675781 0
1.05 0.55 0
0.91875 0.545313 0
0.7875 0.540625 0
0.80625 0.810937 0
0.671875 0.803906 0
0.5375 0.796875 0
0.796875 0.675781 0
0.664062 0.669922 0
0.53125 0.664062 0
0.7875 0.540625 0
0.65625 0.535937 0
0.525 0.53125 0
0.55 1.0625 0
0.4125 1.05313 0
0.275 1.04375 0
0.54375 0.929688 0
0.407813 0.921484 0
0.271875 0.913281 0
0.5375 0.796875 0
0.403125 0.789844 0
0.26875 0.782813 0
0.275 1.04375 0
0.1375 1.03437 0
0 1.025 0
0.271875 0.913281 0
0.135938 0.905078 0
0 0.896875 0
0.26875 0.782813 0
0.134375 0.775781 0
0 0.76875 0
0.5375 0.796875 0
0.403125 0.789844 0
0.26875 0.782813 0
0.53125 0.664062 0
0.398438 0.658203 0
0.265625 0.652344 0
0.525 0.53125 0
0.39375 0.526563 0
0.2625 0.521875 0
0.26875 0.782813 0
0.134375 0.775781 0
0 0.76875 0
0.265625 0.652344 0
0.132812 0.646484 0
0 0.640625 0
0.2625 0.521875 0
0.13125 0.517187 0
0 0.5125 0
1.05 0.55 0
0.91875 0.545313 0
0.7875 0.540625 0
1.0375 0.4125 0
0.907812 0.408984 0
0.778125 0.405469 0
1.025 0.275 0
0.896875 0.272656 0
0.76875 0.270313 0
0.7875 0.540625 0
0.65625 0.535937 0
0.525 0.53125 0
0.778125 0.405469 0
0.648438 0.401953 0
0.51875 0.398438 0
0.76875 0.270313 0
0.640625 0.267969 0
0.5125 0.265625 0
1.025 0.275 0
0.896875 0.272656 0
0.76875 0.270313 0
1.0125 0.1375 0
0.885937 0.136328 0
0.759375 0.135156 0
1 0 0
0.875 0 0
0.75 0 0
0.76875 0.270313 0
0.640625 0.267969 0
0.5125 0.265625 0
0.759375 0.135156 0
0.632812 0.133984 0
0.50625 0.132812 0
0.75 0 0
0.625 0 0
0.5 0 0
0.525 0.53125 0
0.39375 0.526563 0
0.2625 0.521875 0
0.51875 0.398438 0
0.389062 0.394922 0
0.259375 0.391406 0
0.5125 0.265625 0
0.384375 0.263281 0
0.25625 0.260937 0
0.2625 0.521875 0
0.13125 0.517187 0
0 0.5125 0
0.259375 0.391406 0
0.129688 0.387891 0
0 0.384375 0
0.25625 0.260937 0
0.128125 0.258594 0
0 0.25625 0
0.5125 0.265625 0
0.384375 0.263281 0
0.25625 0.260937 0
0.50625 0.132812 0
0.379687 0.131641 0
0.253125 0.130469 0
0.5 0 0
0.375 0 0
0.25 0 0
0.25625 0.260937 0
0.128125 0.258594 0
0 0.25625 0
0.253125 0.130469 0
0.126562 0.129297 0
0 0.128125 0
0.25 0 0
0.125 0 0
0 0 0
2 1 0
1.8875 1.0125 0
1.775 1.025 0
2 0.875 0
1.88594 0.885938 0
1.77188 0.896875 0
2 0.75 0
1.88437 0.759375 0
1.76875 0.76875 0
1.775 1.025 0
1.6625 1.0375 0
1.55 1.05 0
1.77188 0.896875 0
1.65781 0.907813 0
1.54375 0.91875 0
1.76875 0.76875 0
1.65313 0.778125 0
1.5375 0.7875 0
2 0.75 0
1.88437 0.759375 0
1.76875 0.76875 0
2 0.625 0
1.88281 0.632812 0
1.76562 0.640625 0
2 0.5 0
1.88125 0.50625 0
1.7625 0.5125 0
1.76875 0.76875 0
1.65313 0.778125 0
1.5375 0.7875 0
1.76562 0.640625 0
1.64844 0.648438 0
1.53125 0.65625 0
1.7625 0.5125 0
1.64375 0.51875 0
1.525 0.525 0
1.55 1.05 0
1.4375 1.0625 0
1.325 1.075 0
1.54375 0.91875 0
1.42969 0.929688 0
1.31563 0.940625 0
1.5375 0.7875 0
1.42188 0.796875 0
1.30625 0.80625 0
1.325 1.075 0
1.2125 1.0875 0
1.1 1.1 0
1.31563 0.940625 0
1.20156 0.951563 0
1.0875 0.9625 0
1.30625 0.80625 0
1.19063 0.815625 0
1.075 0.825 0
1.5375 0.7875 0
1.42188 0.796875 0
1.30625 0.80625 0
1.53125 0.65625 0
1.41406 0.664062 0
1.29688 0.671875 0
1.525 0.525 0
1.40625 0.53125 0
1.2875 0.5375 0
1.30625 0.80625 0
1.19063 0.815625 0
1.075 0.825 0
1.29688 0.671875 0
1.17969 0.679688 0
1.0625 0.6875 0
1.2875 0.5375 0
1.16875 0.54375 0
1.05 0.55 0
2 0.5 0
1.88125 0.50625 0
1.7625 0.5125 0
2 0.375 0
1.87969 0.379687 0
1.75938 0.384375 0
2 0.25 0
1.87813 0.253125 0
1.75625 0.25625 0
1.7625 0.5125 0
1.64375 0.51875 0
1.525 0.525 0
1.75938 0.384375 0
1.63906 0.389063 0
1.51875 0.39375 0
1.75625 0.25625 0
1.63438 0.259375 0
1.5125 0.2625 0
2 0.25 0
1.87813 0.253125 0
1.75625 0.25625 0
2 0.125 0
1.87656 0.126562 0
1.75313 0.128125 0
2 0 0
1.875 0 0
1.75 0 0
1.75625 0.25625 0
1.63438 0.259375 0
1.5125 0.2625 0
1.75313 0.128125 0
1.62969 0.129688 0
1.50625 0.13125 0
1.75 0 0
1.625 0 0
1.5 0 0
1.525 0.525 0
1.40625 0.53125 0
1.2875 0.5375 0
1.51875 0.39375 0
1.39844 0.398438 0
1.27813 0.403125 0
1.5125 0.2625 0
1.39062 0.265625 0
1.26875 0.26875 0
1.2875 0.5375 0
1.16875 0.54375 0
1.05 0.55 0
1.27813 0.403125 0
1.15781 0.407813 0
1.0375 0.4125 0
1.26875 0.26875 0
1.14688 0.271875 0
1.025 0.275 0
1.5125 0.2625 0
1.39062 0.265625 0
1.26875 0.26875 0
1.50625 0.13125 0
1.38281 0.132812 0
1.25937 0.134375 0
1.5 0 0
1.375 0 0
1.25 0 0
1.26875 0.26875 0
1.14688 0.271875 0
1.025 0.275 0
1.25937 0.134375 0
1.13594 0.135938 0
1.0125 0.1375 0
1.25 0 0
1.125 0 0
1 0 0
1 2 0
0.875 2.00625 0
0.75 2.0125 0
1.0125 1.8875 0
0.885938 1.8918 0
0.759375 1.89609 0
1.025 1.775 0
0.896875 1.77734 0
0.76875 1.77969 0
0.75 2.0125 0
0.625 2.01875 0
0.5 2.025 0
0.759375 1.89609 0
0.632812 1.90039 0
0.50625 1.90469 0
0.76875 1.77969 0
0.640625 1.78203 0
0.5125 1.78437 0
1.025 1.775 0
0.896875 1.77734 0
0.76875 1.77969 0
1.0375 1.6625 0
0.907813 1.66289 0
0.778125 1.66328 0
1.05 1.55 0
0.91875 1.54844 0
0.7875 1.54688 0
0.76875 1.77969 0
0.640625 1.78203 0
0.5125 1.78437 0
0.778125 1.66328 0
0.648438 1.66367 0
0.51875 1.66406 0
0.7875 1.54688 0
0.65625 1.54531 0
0.525 1.54375 0
0.5 2.025 0
0.375 2.03125 0
0.25 2.0375 0
0.50625 1.90469 0
0.379687 1.90898 0
0.253125 1.91328 0
0.5125 1.78437 0
0.384375 1.78672 0
0.25625 1.78906 0
0.25 2.0375 0
0.125 2.04375 0
0 2.05 0
0.253125 1.91328 0
0.126562 1.91758 0
0 1.92187 0
0.25625 1.78906 0
0.128125 1.79141 0
0 1.79375 0
0.5125 1.78437 0
0.384375 1.78672 0
0.25625 1.78906 0
0.51875 1.66406 0
0.389062 1.66445 0
0.259375 1.66484 0
0.525 1.54375 0
0.39375 1.54219 0
0.2625 1.54062 0
0.25625 1.78906 0
0.128125 1.79141 0
0 1.79375 0
0.259375 1.66484 0
0.129688 1.66523 0
0 1.66562 0
0.2625 1.54062 0
0.13125 1.53906 0
0 1.5375 0
1.05 1.55 0
0.91875 1.54844 0
0.7875 1.54688 0
1.0625 1.4375 0
0.929688 1.43398 0
0.796875 1.43047 0
1.075 1.325 0
0.940625 1.31953 0
0.80625 1.31406 0
0.7875 1.54688 0
0.65625 1.54531 0
0.525 1.54375 0
0.796875 1.43047 0
0.664062 1.42695 0
0.53125 1.42344 0
0.80625 1.31406 0
0.671875 1.30859 0
0.5375 1.30312 0
1.075 1.325 0
0.940625 1.31953 0
0.80625 1.31406 0
1.0875 1.2125 0
0.951563 1.20508 0
0.815625 1.19766 0
1.1 1.1 0
0.9625 1.09063 0
0.825 1.08125 0
0.80625 1.31406 0
0.671875 1.30859 0
0.5375 1.30312 0
0.815625 1.19766 0
0.679688 1.19023 0
0.54375 1.18281 0
0.825 1.08125 0
0.6875 1.07187 0
0.55 1.0625 0
0.525 1.54375 0
0.39375 1.54219 0
0.2625 1.54062 0
0.53125 1.42344 0
0.398438 1.41992 0
0.265625 1.41641 0
0.5375 1.30312 0
0.403125 1.29766 0
0.26875 1.29219 0
0.2625 1.54062 0
0.13125 1.53906 0
0 1.5375 0
0.265625 1.41641 0
0.132812 1.41289 0
0 1.40937 0
0.26875 1.29219 0
0.134375 1.28672 0
0 1.28125 0
0.5375 1.30312 0
0.403125 1.29766 0
0.26875 1.29219 0
0.54375 1.18281 0
0.407813 1.17539 0
0.271875 1.16797 0
0.55 1.0625 0
0.4125 1.05313 0
0.275 1.04375 0
0.26875 1.29219 0
0.134375 1.28672 0
0 1.28125 0
0.271875 1.16797 0
0.135938 1.16055 0
0 1.15312 0
0.275 1.04375 0
0.1375 1.03437 0
0 1.025 0
2.9 1.1 0
2.7875 1.0875 0
2.675 1.075 0
2.9125 0.9625 0
2.79844 0.951563 0
2.68438 0.940625 0
2.925 0.825 0
2.80938 0.815625 0
2.69375 0.80625 0
2.675 1.075 0
2.5625 1.0625 0
2.45 1.05 0
2.68438 0.940625 0
2.57031 0.929688 0
2.45625 0.91875 0
2.69375 0.80625 0
2.57812 0.796875 0
2.4625 0.7875 0
2.925 0.825 0
2.80938 0.815625 0
2.69375 0.80625 0
2.9375 0.6875 0
2.82031 0.679688 0
2.70312 0.671875 0
2.95 0.55 0
2.83125 0.54375 0
2.7125 0.5375 0
2.69375 0.80625 0
2.57812 0.796875 0
2.4625 0.7875 0
2.70312 0.671875 0
2.58594 0.664062 0
2.46875 0.65625 0
2.7125 0.5375 0
2.59375 0.53125 0
2.475 0.525 0
2.45 1.05 0
2.3375 1.0375 0
2.225 1.025 0
2.45625 0.91875 0
2.34219 0.907813 0
2.22813 0.896875 0
2.4625 0.7875 0
2.34688 0.778125 0
2.23125 0.76875 0
2.225 1.025 0
2.1125 1.0125 0
2 1 0
2.22813 0.896875 0
2.11406 0.885938 0
2 0.875 0
2.23125 0.76875 0
2.11563 0.759375 0
2 0.75 0
2.4625 0.7875 0
2.34688 0.778125 0
2.23125 0.76875 0
2.46875 0.65625 0
2.35156 0.648438 0
2.23438 0.640625 0
2.475 0.525 0
2.35625 0.51875 0
2.2375 0.5125 0
2.23125 0.76875 0
2.11563 0.759375 0
2 0.75 0
2.23438 0.640625 0
2.11719 0.632812 0
2 0.625 0
2.2375 0.5125 0
2.11875 0.50625 0
2 0.5 0
2.95 0.55 0
2.83125 0.54375 0
2.7125 0.5375 0
2.9625 0.4125 0
2.84219 0.407813 0
2.72188 0.403125 0
2.975 0.275 0
2.85313 0.271875 0
2.73125 0.26875 0
2.7125 0.5375 0
2.59375 0.53125 0
2.475 0.525 0
2.72188 0.403125 0
2.60156 0.398438 0
2.48125 0.39375 0
2.73125 0.26875 0
2.60938 0.265625 0
2.4875 0.2625 0
2.975 0.275 0
2.85313 0.271875 0
2.73125 0.26875 0
2.9875 0.1375 0
2.86406 0.135938 0
2.74063 0.134375 0
3 0 0
2.875 0 0
2.75 0 0
2.73125 0.26875 0
2.60938 0.265625 0
2.4875 0.2625 0
2.74063 0.134375 0
2.61719 0.132812 0
2.49375 0.13125 0
2.75 0 0
2.625 0 0
2.5 0 0
2.475 0.525 0
2.35625 0.51875 0
2.2375 0.5125 0
2.48125 0.39375 0
2.36094 0.389063 0
2.24062 0.384375 0
2.4875 0.2625 0
2.36562 0.259375 0
2.24375 0.25625 0
2.2375 0.5125 0
2.11875 0.50625 0
2 0.5 0
2.24062 0.384375 0
2.12031 0.379687 0
2 0.375 0
2.24375 0.25625 0
2.12188 0.253125 0
2 0.25 0
2.4875 0.2625 0
2.36562 0.259375 0
2.24375 0.25625 0
2.49375 0.13125 0
2.37031 0.129688 0
2.24688 0.128125 0
2.5 0 0
2.375 0 0
2.25 0 0
2.24375 0.25625 0
2.12188 0.253125 0
2 0.25 0
2.24688 0.128125 0
2.12344 0.126562 0
2 0.125 0
2.25 0 0
2.125 0 0
2 0 0
4 1 0
3.8625 1.0125 0
3.725 1.025 0
4 0.875 0
3.86406 0.885938 0
3.72813 0.896875 0
4 0.75 0
3.86563 0.759375 0
3.73125 0.76875 0
3.725 1.025 0
3.5875 1.0375 0
3.45 1.05 0
3.72813 0.896875 0
3.59219 0.907813 0
3.45625 0.91875 0
3.73125 0.76875 0
3.59688 0.778125 0
3.4625 0.7875 0
4 0.75 0
3.86563 0.759375 0
3.73125 0.76875 0
4 0.625 0
3.86719 0.632812 0
[...]
POINT_DATA 8640
VECTORS v double
1.24148 -0.291361 0
1.21802 -0.24251 0
1.1921 -0.191932 0
1.16761 -0.258693 0
1.13737 -0.216772 0
1.10793 -0.176924 0
1.08155 -0.225323 0
1.04577 -0.189778 0
1.01381 -0.156003 0
1.1921 -0.191932 0
1.17899 -0.15441 0
1.16336 -0.115215 0
1.10793 -0.176924 0
1.0886 -0.141383 0
1.07008 -0.109009 0
1.01381 -0.156003 0
0.988049 -0.124988 0
0.96659 -0.0969159 0
1.08155 -0.225323 0
1.04577 -0.189778 0
1.01381 -0.156003 0
0.969682 -0.177648 0
0.930409 -0.151371 0
0.895879 -0.12637 0
0.835752 -0.138533 0
0.797576 -0.119453 0
0.763141 -0.100584 0
1.01381 -0.156003 0
0.988049 -0.124988 0
0.96659 -0.0969159 0
0.895879 -0.12637 0
0.867368 -0.102517 0
0.843876 -0.0801469 0
0.763141 -0.100584 0
0.734392 -0.0821004 0
0.710206 -0.0645043 0
1.16336 -0.115215 0
1.15326 -0.0856215 0
1.14052 -0.0538717 0
1.07008 -0.109009 0
1.0562 -0.0804859 0
1.04272 -0.0520326 0
0.96659 -0.0969159 0
0.948229 -0.0706198 0
0.934126 -0.04583 0
1.14052 -0.0538717 0
1.13381 -0.0278322 0
1.125 0 0
1.04272 -0.0520326 0
1.03385 -0.0257071 0
1.02539 0 0
0.934126 -0.04583 0
0.922025 -0.0222435 0
0.914062 0 0
0.96659 -0.0969159 0
0.948229 -0.0706198 0
0.934126 -0.04583 0
0.843876 -0.0801469 0
0.82447 -0.0587077 0
0.810178 -0.0385694 0
0.710206 -0.0645043 0
0.690586 -0.0476258 0
0.675773 -0.0315395 0
0.934126 -0.04583 0
0.922025 -0.0222435 0
0.914062 0 0
0.810178 -0.0385694 0
0.798271 -0.0190272 0
0.791016 0 0
0.675773 -0.0315395 0
0.663672 -0.0157536 0
0.65625 0 0
0.835752 -0.138533 0
0.797576 -0.119453 0
0.763141 -0.100584 0
0.688173 -0.0944555 0
0.649613 -0.0813239 0
0.615049 -0.0684514 0
0.517231 -0.0560366 0
0.481243 -0.0486244 0
0.448987 -0.0414632 0
0.763141 -0.100584 0
0.734392 -0.0821004 0
0.710206 -0.0645043 0
0.615049 -0.0684514 0
0.58566 -0.0559932 0
0.561288 -0.0440269 0
0.448987 -0.0414632 0
0.421428 -0.0344517 0
0.398686 -0.0277525 0
0.517231 -0.0560366 0
0.481243 -0.0486244 0
0.448987 -0.0414632 0
0.308407 -0.0172412 0
0.27974 -0.0146352 0
0.255399 -0.0123132 0
0 0 0
0 0 0
0 0 0
0.448987 -0.0414632 0
0.421428 -0.0344517 0
0.398686 -0.0277525 0
0.255399 -0.0123132 0
0.233718 -0.00997289 0
0.216694 -0.00791807 0
0 0 0
0 0 0
0 0 0
0.710206 -0.0645043 0
0.690586 -0.0476258 0
0.675773 -0.0315395 0
0.561288 -0.0440269 0
0.541459 -0.0322869 0
0.527038 -0.021134 0
0.398686 -0.0277525 0
0.380129 -0.0210451 0
0.366923 -0.0146005 0
0.675773 -0.0315395 0
0.663672 -0.0157536 0
0.65625 0 0
0.527038 -0.021134 0
0.515835 -0.0102803 0
0.509766 0 0
0.366923 -0.0146005 0
0.356775 -0.00785898 0
0.351562 0 0
0.398686 -0.0277525 0
0.380129 -0.0210451 0
0.366923 -0.0146005 0
0.216694 -0.00791807 0
0.202192 -0.00573268 0
0.192548 -0.00374122 0
0 0 0
0 0 0
0 0 0
0.366923 -0.0146005 0
0.356775 -0.00785898 0
0.351562 0 0
0.192548 -0.00374122 0
0.184857 -0.0016558 0
0.181641 0 0
0 0 0
0 0 0
0 0 0
1.72855 -0.416693 0
1.65172 -0.461757 0
1.568 -0.472272 0
1.58765 -0.332067 0
1.52499 -0.363669 0
1.44837 -0.379265 0
1.4535 -0.259752 0
1.39835 -0.291637 0
1.34475 -0.311835 0
1.568 -0.472272 0
1.48927 -0.468201 0
1.41347 -0.443388 0
1.44837 -0.379265 0
1.38741 -0.382252 0
1.3181 -0.371482 0
1.34475 -0.311835 0
1.28916 -0.317799 0
1.23605 -0.313164 0
1.4535 -0.259752 0
1.39835 -0.291637 0
1.34475 -0.311835 0
1.32972 -0.198629 0
1.28389 -0.219853 0
1.23123 -0.233143 0
1.16523 -0.135895 0
1.122 -0.153992 0
1.07476 -0.166832 0
1.34475 -0.311835 0
1.28916 -0.317799 0
1.23605 -0.313164 0
1.23123 -0.233143 0
1.1802 -0.237754 0
1.12639 -0.235036 0
1.07476 -0.166832 0
1.02931 -0.173636 0
0.982083 -0.17499 0
1.41347 -0.443388 0
1.35401 -0.414252 0
1.30442 -0.372614 0
1.3181 -0.371482 0
1.27342 -0.351662 0
1.22408 -0.323484 0
1.23605 -0.313164 0
1.18917 -0.298086 0
1.14666 -0.277069 0
1.30442 -0.372614 0
1.26972 -0.335037 0
1.24148 -0.291361 0
1.22408 -0.323484 0
1.19652 -0.292374 0
1.16761 -0.258693 0
1.14666 -0.277069 0
1.11197 -0.251837 0
1.08155 -0.225323 0
1.23605 -0.313164 0
1.18917 -0.298086 0
1.14666 -0.277069 0
1.12639 -0.235036 0
1.08127 -0.226256 0
1.03714 -0.212893 0
0.982083 -0.17499 0
0.941483 -0.171178 0
0.901371 -0.163339 0
1.14666 -0.277069 0
1.11197 -0.251837 0
1.08155 -0.225323 0
1.03714 -0.212893 0
1.00182 -0.19648 0
0.969682 -0.177648 0
0.901371 -0.163339 0
0.867592 -0.152159 0
0.835752 -0.138533 0
1.16523 -0.135895 0
1.122 -0.153992 0
1.07476 -0.166832 0
1.00757 -0.0957896 0
0.968984 -0.108761 0
0.925168 -0.117608 0
0.830901 -0.0486687 0
0.793863 -0.0577666 0
0.751011 -0.0643909 0
1.07476 -0.166832 0
1.02931 -0.173636 0
0.982083 -0.17499 0
0.925168 -0.117608 0
0.882672 -0.121707 0
0.837268 -0.121613 0
0.751011 -0.0643909 0
0.709311 -0.0680342 0
0.664639 -0.0690509 0
0.830901 -0.0486687 0
0.793863 -0.0577666 0
0.751011 -0.0643909 0
0.547682 -0.015326 0
0.524469 -0.0185611 0
0.493277 -0.0208369 0
0 0 0
0 0 0
0 0 0
0.751011 -0.0643909 0
0.709311 -0.0680342 0
0.664639 -0.0690509 0
0.493277 -0.0208369 0
0.46291 -0.0221776 0
0.427906 -0.0223312 0
0 0 0
0 0 0
0 0 0
0.982083 -0.17499 0
0.941483 -0.171178 0
0.901371 -0.163339 0
0.837268 -0.121613 0
0.796941 -0.117988 0
0.756492 -0.111802 0
0.664639 -0.0690509 0
0.624808 -0.067921 0
0.584822 -0.0651658 0
0.901371 -0.163339 0
0.867592 -0.152159 0
0.835752 -0.138533 0
0.756492 -0.111802 0
0.72127 -0.10397 0
0.688173 -0.0944555 0
0.584822 -0.0651658 0
0.550102 -0.0612426 0
0.517231 -0.0560366 0
0.664639 -0.0690509 0
0.624808 -0.067921 0
0.584822 -0.0651658 0
0.427906 -0.0223312 0
0.396367 -0.0218953 0
0.364033 -0.0206659 0
0 0 0
0 0 0
0 0 0
0.584822 -0.0651658 0
0.550102 -0.0612426 0
0.517231 -0.0560366 0
0.364033 -0.0206659 0
0.335191 -0.0192456 0
0.308407 -0.0172412 0
0 0 0
0 0 0
0 0 0
1.24601 -0.0323541 0
1.31887 -0.0248073 0
1.37638 -0.0184654 0
1.2598 -0.111147 0
1.3242 -0.0845154 0
1.37865 -0.0626261 0
1.25628 -0.171959 0
1.31411 -0.131838 0
1.36529 -0.099706 0
1.37638 -0.0184654 0
1.41826 -0.0140234 0
1.44929 -0.0101218 0
1.37865 -0.0626261 0
1.41645 -0.0475926 0
1.44676 -0.0350958 0
1.36529 -0.099706 0
1.39989 -0.0762839 0
1.42945 -0.0565422 0
1.25628 -0.171959 0
1.31411 -0.131838 0
1.36529 -0.099706 0
1.27323 -0.243594 0
1.31844 -0.186823 0
1.35888 -0.141615 0
1.28918 -0.273716 0
1.31688 -0.212972 0
1.34266 -0.163111 0
1.36529 -0.099706 0
1.39989 -0.0762839 0
1.42945 -0.0565422 0
1.35888 -0.141615 0
1.38617 -0.108834 0
1.41035 -0.0809004 0
1.34266 -0.163111 0
1.36163 -0.12642 0
1.37932 -0.0938208 0
1.44929 -0.0101218 0
1.47244 -0.00707832 0
1.48691 -0.004169 0
1.44676 -0.0350958 0
1.46781 -0.0253278 0
1.48241 -0.0159747 0
1.42945 -0.0565422 0
1.44939 -0.0403395 0
1.46492 -0.0254878 0
1.48691 -0.004169 0
1.49738 -0.00189383 0
1.5 0 0
1.48241 -0.0159747 0
1.49116 -0.00752842 0
1.49414 0 0
1.46492 -0.0254878 0
1.47299 -0.0122922 0
1.47656 0 0
1.42945 -0.0565422 0
1.44939 -0.0403395 0
1.46492 -0.0254878 0
1.41035 -0.0809004 0
1.42603 -0.058372 0
1.43901 -0.0375161 0
1.37932 -0.0938208 0
1.39068 -0.0674536 0
1.40075 -0.0428462 0
1.46492 -0.0254878 0
1.47299 -0.0122922 0
1.47656 0 0
1.43901 -0.0375161 0
1.44451 -0.0187279 0
1.44727 0 0
1.40075 -0.0428462 0
1.40431 -0.0213711 0
1.40625 0 0
1.28918 -0.273716 0
1.31688 -0.212972 0
1.34266 -0.163111 0
1.28747 -0.306301 0
1.30495 -0.243307 0
1.31723 -0.188639 0
1.28916 -0.311509 0
1.29158 -0.250055 0
1.2877 -0.195109 0
1.34266 -0.163111 0
1.36163 -0.12642 0
1.37932 -0.0938208 0
1.31723 -0.188639 0
1.33024 -0.148381 0
1.33981 -0.110457 0
1.2877 -0.195109 0
1.29179 -0.153816 0
1.29194 -0.114277 0
1.28916 -0.311509 0
1.29158 -0.250055 0
1.2877 -0.195109 0
1.26654 -0.307088 0
1.25824 -0.253687 0
1.24178 -0.19954 0
1.24148 -0.291361 0
1.21802 -0.24251 0
1.1921 -0.191932 0
1.2877 -0.195109 0
1.29179 -0.153816 0
1.29194 -0.114277 0
1.24178 -0.19954 0
1.23894 -0.160449 0
1.23099 -0.119481 0
1.1921 -0.191932 0
1.17899 -0.15441 0
1.16336 -0.115215 0
1.37932 -0.0938208 0
1.39068 -0.0674536 0
1.40075 -0.0428462 0
1.33981 -0.110457 0
1.34708 -0.080417 0
1.35178 -0.0516841 0
1.29194 -0.114277 0
1.29348 -0.0832422 0
1.29204 -0.0527724 0
1.40075 -0.0428462 0
1.40431 -0.0213711 0
1.40625 0 0
1.35178 -0.0516841 0
1.35377 -0.026863 0
1.35352 0 0
1.29204 -0.0527724 0
1.29164 -0.0269087 0
1.28906 0 0
1.29194 -0.114277 0
1.29348 -0.0832422 0
1.29204 -0.0527724 0
1.23099 -0.119481 0
1.22767 -0.0886817 0
1.22079 -0.0563234 0
1.16336 -0.115215 0
1.15326 -0.0856215 0
1.14052 -0.0538717 0
1.29204 -0.0527724 0
1.29164 -0.0269087 0
1.28906 0 0
1.22079 -0.0563234 0
1.21805 -0.0295919 0
1.21289 0 0
1.14052 -0.0538717 0
1.13381 -0.0278322 0
1.125 0 0
2.01985 0.278811 0
2.0957 0.125463 0
2.07789 0.0275019 0
1.97055 0.243823 0
1.96957 0.15689 0
1.96374 0.0603291 0
1.67855 0.239181 0
1.70603 0.159465 0
1.71496 0.0853623 0
2.07789 0.0275019 0
2.08464 -0.0929797 0
2.02705 -0.167197 0
1.96374 0.0603291 0
1.9306 -0.0282736 0
1.88677 -0.115601 0
1.71496 0.0853623 0
1.70323 0.00571559 0
1.67944 -0.0656445 0
1.67855 0.239181 0
1.70603 0.159465 0
1.71496 0.0853623 0
1.52318 0.155445 0
1.53966 0.102859 0
1.54757 0.0476863 0
1.37146 0.143961 0
1.38047 0.10107 0
1.38148 0.058662 0
1.71496 0.0853623 0
1.70323 0.00571559 0
1.67944 -0.0656445 0
1.54757 0.0476863 0
1.53903 -0.00517731 0
1.51891 -0.0562181 0
1.38148 0.058662 0
1.3672 0.0161859 0
1.34637 -0.0238048 0
2.02705 -0.167197 0
1.99586 -0.258693 0
1.91383 -0.317786 0
1.88677 -0.115601 0
1.82544 -0.190457 0
1.74764 -0.251953 0
1.67944 -0.0656445 0
1.63578 -0.130794 0
1.58815 -0.18497 0
1.91383 -0.317786 0
1.82335 -0.374803 0
1.72855 -0.416693 0
1.74764 -0.251953 0
1.67682 -0.299398 0
1.58765 -0.332067 0
1.58815 -0.18497 0
1.51956 -0.225673 0
1.4535 -0.259752 0
1.67944 -0.0656445 0
1.63578 -0.130794 0
1.58815 -0.18497 0
1.51891 -0.0562181 0
1.48577 -0.101663 0
1.44093 -0.141882 0
1.34637 -0.0238048 0
1.31242 -0.0600375 0
1.27268 -0.0920419 0
1.58815 -0.18497 0
1.51956 -0.225673 0
1.4535 -0.259752 0
1.44093 -0.141882 0
1.38992 -0.174551 0
1.32972 -0.198629 0
1.27268 -0.0920419 0
1.22221 -0.116757 0
1.16523 -0.135895 0
1.37146 0.143961 0
1.38047 0.10107 0
1.38148 0.058662 0
1.16408 0.104354 0
1.17893 0.0776341 0
1.18545 0.0481533 0
0.923043 0.0788494 0
0.947335 0.063499 0
0.9632 0.0462639 0
1.38148 0.058662 0
1.3672 0.0161859 0
1.34637 -0.0238048 0
1.18545 0.0481533 0
1.17798 0.0179387 0
1.16174 -0.0115126 0
0.9632 0.0462639 0
0.964425 0.0273426 0
0.95676 0.00845512 0
0.923043 0.0788494 0
0.947335 0.063499 0
0.9632 0.0462639 0
0.540857 0.0241541 0
0.571154 0.0206956 0
0.596496 0.0159673 0
0 0 0
0 0 0
0 0 0
0.9632 0.0462639 0
0.964425 0.0273426 0
0.95676 0.00845512 0
0.596496 0.0159673 0
0.611131 0.0104861 0
0.617589 0.00450933 0
0 0 0
0 0 0
0 0 0
1.34637 -0.0238048 0
1.31242 -0.0600375 0
1.27268 -0.0920419 0
1.16174 -0.0115126 0
1.13448 -0.0383053 0
1.09868 -0.0618258 0
0.95676 0.00845512 0
0.936929 -0.0093474 0
0.909172 -0.0255122 0
1.27268 -0.0920419 0
1.22221 -0.116757 0
1.16523 -0.135895 0
1.09868 -0.0618258 0
1.05646 -0.0807855 0
1.00757 -0.0957896 0
0.909172 -0.0255122 0
0.873633 -0.0385608 0
0.830901 -0.0486687 0
0.95676 0.00845512 0
0.936929 -0.0093474 0
0.909172 -0.0255122 0
0.617589 0.00450933 0
0.613415 -0.00116137 0
0.599428 -0.00678138 0
0 0 0
0 0 0
0 0 0
0.909172 -0.0255122 0
0.873633 -0.0385608 0
0.830901 -0.0486687 0
0.599428 -0.00678138 0
0.57828 -0.0114513 0
0.547682 -0.015326 0
0 0 0
0 0 0
0 0 0
1.20338 0.349481 0
1.30487 0.414847 0
1.43819 0.474621 0
1.12531 0.292769 0
1.18825 0.343714 0
1.26134 0.381345 0
1.08144 0.242107 0
1.1554 0.28655 0
1.22005 0.318966 0
1.43819 0.474621 0
1.587 0.525564 0
1.70638 0.546314 0
1.26134 0.381345 0
1.36547 0.415935 0
1.49834 0.450877 0
1.22005 0.318966 0
1.27099 0.335186 0
1.31221 0.340642 0
1.08144 0.242107 0
1.1554 0.28655 0
1.22005 0.318966 0
0.947668 0.184871 0
1.0239 0.219998 0
1.10782 0.252587 0
0.808794 0.127845 0
0.874915 0.152769 0
0.944157 0.175729 0
1.22005 0.318966 0
1.27099 0.335186 0
1.31221 0.340642 0
1.10782 0.252587 0
1.19873 0.276064 0
1.28482 0.283116 0
0.944157 0.175729 0
1.02096 0.196135 0
1.10171 0.210549 0
1.70638 0.546314 0
1.77838 0.510415 0
1.83718 0.443682 0
1.49834 0.450877 0
1.66162 0.459793 0
1.80778 0.420064 0
1.31221 0.340642 0
1.37622 0.342603 0
1.47005 0.328275 0
1.83718 0.443682 0
1.91505 0.372885 0
2.01985 0.278811 0
1.80778 0.420064 0
1.89877 0.343235 0
1.97055 0.243823 0
1.47005 0.328275 0
1.57744 0.29447 0
1.67855 0.239181 0
1.31221 0.340642 0
1.37622 0.342603 0
1.47005 0.328275 0
1.28482 0.283116 0
1.35662 0.271632 0
1.41998 0.244091 0
1.10171 0.210549 0
1.18334 0.215704 0
1.26174 0.206891 0
1.47005 0.328275 0
1.57744 0.29447 0
1.67855 0.239181 0
1.41998 0.244091 0
1.4723 0.204403 0
1.52318 0.155445 0
1.26174 0.206891 0
1.32344 0.181955 0
1.37146 0.143961 0
0.808794 0.127845 0
0.874915 0.152769 0
0.944157 0.175729 0
0.639184 0.0810846 0
0.700872 0.0964692 0
0.768681 0.112009 0
0.446531 0.0377811 0
0.49243 0.0458884 0
0.543662 0.054965 0
0.944157 0.175729 0
1.02096 0.196135 0
1.10171 0.210549 0
0.768681 0.112009 0
0.843343 0.126251 0
0.919244 0.136183 0
0.543662 0.054965 0
0.603687 0.0656412 0
0.670021 0.076278 0
0.446531 0.0377811 0
0.49243 0.0458884 0
0.543662 0.054965 0
0.229546 0.0106664 0
0.255765 0.0122617 0
0.283919 0.0140779 0
0 0 0
0 0 0
0 0 0
0.543662 0.054965 0
0.603687 0.0656412 0
0.670021 0.076278 0
0.283919 0.0140779 0
0.317111 0.0162372 0
0.355291 0.0188465 0
0 0 0
0 0 0
0 0 0
1.10171 0.210549 0
1.18334 0.215704 0
1.26174 0.206891 0
0.919244 0.136183 0
0.991323 0.139684 0
1.05911 0.136204 0
0.670021 0.076278 0
0.739731 0.0852336 0
0.809376 0.0899261 0
1.26174 0.206891 0
1.32344 0.181955 0
1.37146 0.143961 0
1.05911 0.136204 0
1.11567 0.124258 0
1.16408 0.104354 0
0.809376 0.0899261 0
0.87027 0.087744 0
0.923043 0.0788494 0
0.670021 0.076278 0
0.739731 0.0852336 0
0.809376 0.0899261 0
0.355291 0.0188465 0
0.397501 0.021459 0
0.445018 0.0236293 0
0 0 0
0 0 0
0 0 0
0.809376 0.0899261 0
0.87027 0.087744 0
0.923043 0.0788494 0
0.445018 0.0236293 0
0.492411 0.0246001 0
0.540857 0.0241541 0
0 0 0
0 0 0
0 0 0
0.852172 -0.00691493 0
0.565378 0.0554668 0
0.210795 0.122978 0
0.921738 0.187281 0
0.701674 0.291031 0
0.420442 0.417102 0
1.03967 0.378734 0
0.913939 0.544016 0
0.7323 0.686699 0
0.210795 0.122978 0
-0.124772 0.230527 0
-0.394486 0.28863 0
0.420442 0.417102 0
0.176907 0.52503 0
-0.0776482 0.541096 0
0.7323 0.686699 0
0.563334 0.788282 0
0.365856 0.827801 0
1.03967 0.378734 0
0.913939 0.544016 0
0.7323 0.686699 0
1.15954 0.402154 0
1.12725 0.576269 0
1.05106 0.748946 0
1.22454 0.456098 0
1.24791 0.604266 0
1.29012 0.795886 0
0.7323 0.686699 0
0.563334 0.788282 0
0.365856 0.827801 0
1.05106 0.748946 0
0.960804 0.856072 0
0.813273 0.898527 0
1.29012 0.795886 0
1.34461 0.94355 0
1.27999 0.996525 0
-0.394486 0.28863 0
-0.803277 0.330212 0
-1.06448 0.358471 0
-0.0776482 0.541096 0
-0.422453 0.532686 0
-0.578503 0.389775 0
0.365856 0.827801 0
0.157681 0.743413 0
0.0303545 0.511205 0
-1.06448 0.358471 0
-1.17098 0.2579 0
-1.25888 0.144123 0
-0.578503 0.389775 0
-0.757428 0.234276 0
-0.939069 0.13184 0
0.0303545 0.511205 0
-0.192637 0.411694 0
-0.297057 0.29677 0
0.365856 0.827801 0
0.157681 0.743413 0
0.0303545 0.511205 0
0.813273 0.898527 0
0.71086 0.831583 0
0.654584 0.597522 0
1.27999 0.996525 0
1.18471 0.958091 0
1.149 0.797059 0
0.0303545 0.511205 0
-0.192637 0.411694 0
-0.297057 0.29677 0
0.654584 0.597522 0
0.452735 0.415542 0
0.346833 0.180983 0
1.149 0.797059 0
1.01497 0.544369 0
0.912211 0.242099 0
1.22454 0.456098 0
1.24791 0.604266 0
1.29012 0.795886 0
1.26684 0.446543 0
1.28053 0.538673 0
1.33357 0.675625 0
1.32287 0.459272 0
1.35756 0.552427 0
1.37549 0.628444 0
1.29012 0.795886 0
1.34461 0.94355 0
1.27999 0.996525 0
1.33357 0.675625 0
1.4931 0.841537 0
1.62596 0.933098 0
1.37549 0.628444 0
1.46459 0.723837 0
1.66109 0.818535 0
1.32287 0.459272 0
1.35756 0.552427 0
1.37549 0.628444 0
1.28377 0.394605 0
1.37945 0.482429 0
1.46231 0.555885 0
1.20338 0.349481 0
1.30487 0.414847 0
1.43819 0.474621 0
1.37549 0.628444 0
1.46459 0.723837 0
1.66109 0.818535 0
1.46231 0.555885 0
1.51819 0.609842 0
1.57358 0.646416 0
1.43819 0.474621 0
1.587 0.525564 0
1.70638 0.546314 0
1.27999 0.996525 0
1.18471 0.958091 0
1.149 0.797059 0
1.62596 0.933098 0
1.64093 0.897055 0
1.58338 0.758128 0
1.66109 0.818535 0
1.93121 0.835699 0
2.08089 0.735988 0
1.149 0.797059 0
1.01497 0.544369 0
0.912211 0.242099 0
1.58338 0.758128 0
1.43652 0.5494 0
1.32624 0.307127 0
2.08089 0.735988 0
2.01421 0.543681 0
1.87421 0.307288 0
1.66109 0.818535 0
1.93121 0.835699 0
2.08089 0.735988 0
1.57358 0.646416 0
1.74618 0.668934 0
1.96823 0.649293 0
1.70638 0.546314 0
1.77838 0.510415 0
1.83718 0.443682 0
2.08089 0.735988 0
2.01421 0.543681 0
1.87421 0.307288 0
1.96823 0.649293 0
2.13126 0.558025 0
2.23494 0.386901 0
1.83718 0.443682 0
1.91505 0.372885 0
2.01985 0.278811 0
1.38439 -0.406395 0
1.53785 -0.468179 0
1.68706 -0.506917 0
1.47959 -0.474568 0
1.55718 -0.53914 0
1.60013 -0.570997 0
1.45553 -0.547398 0
1.46946 -0.605366 0
1.52704 -0.666568 0
1.68706 -0.506917 0
1.79561 -0.509793 0
1.84938 -0.478199 0
1.60013 -0.570997 0
1.65047 -0.596182 0
1.74389 -0.619405 0
1.52704 -0.666568 0
1.6911 -0.750052 0
1.8839 -0.785123 0
1.45553 -0.547398 0
1.46946 -0.605366 0
1.52704 -0.666568 0
1.38598 -0.526285 0
1.44037 -0.608824 0
1.53506 -0.732533 0
1.35754 -0.548031 0
1.40721 -0.690296 0
1.39339 -0.816774 0
1.52704 -0.666568 0
1.6911 -0.750052 0
1.8839 -0.785123 0
1.53506 -0.732533 0
1.61738 -0.810067 0
1.60088 -0.778617 0
1.39339 -0.816774 0
1.30479 -0.841749 0
1.14308 -0.776538 0
1.84938 -0.478199 0
1.90297 -0.422154 0
1.97387 -0.343074 0
1.74389 -0.619405 0
1.91848 -0.604774 0
2.07289 -0.521691 0
1.8839 -0.785123 0
1.973 -0.695013 0
1.94777 -0.526675 0
1.97387 -0.343074 0
2.04552 -0.248234 0
2.11876 -0.136156 0
2.07289 -0.521691 0
2.12688 -0.382334 0
2.13249 -0.200832 0
1.94777 -0.526675 0
1.77651 -0.331548 0
1.58942 -0.119823 0
1.8839 -0.785123 0
1.973 -0.695013 0
1.94777 -0.526675 0
1.60088 -0.778617 0
1.47924 -0.649621 0
1.36485 -0.48193 0
1.14308 -0.776538 0
0.994051 -0.666158 0
0.884211 -0.468973 0
1.94777 -0.526675 0
1.77651 -0.331548 0
1.58942 -0.119823 0
1.36485 -0.48193 0
1.20749 -0.288001 0
1.1075 -0.0842809 0
0.884211 -0.468973 0
0.693663 -0.246849 0
0.569222 -0.0174288 0
1.35754 -0.548031 0
1.40721 -0.690296 0
1.39339 -0.816774 0
1.26759 -0.520716 0
1.18817 -0.625373 0
1.01691 -0.676119 0
1.10828 -0.501947 0
0.907656 -0.543779 0
0.648826 -0.551262 0
1.39339 -0.816774 0
1.30479 -0.841749 0
1.14308 -0.776538 0
1.01691 -0.676119 0
0.82396 -0.637432 0
0.611712 -0.551239 0
0.648826 -0.551262 0
0.388013 -0.502951 0
0.114349 -0.415698 0
1.10828 -0.501947 0
0.907656 -0.543779 0
0.648826 -0.551262 0
0.957205 -0.260664 0
0.664378 -0.212106 0
0.327048 -0.187725 0
0.852172 -0.00691493 0
0.565378 0.0554668 0
0.210795 0.122978 0
0.648826 -0.551262 0
0.388013 -0.502951 0
0.114349 -0.415698 0
0.327048 -0.187725 0
-0.0218177 -0.122463 0
-0.333419 -0.0339372 0
0.210795 0.122978 0
-0.124772 0.230527 0
-0.394486 0.28863 0
1.14308 -0.776538 0
0.994051 -0.666158 0
0.884211 -0.468973 0
0.611712 -0.551239 0
0.400689 -0.437784 0
0.247213 -0.223014 0
0.114349 -0.415698 0
-0.225621 -0.341734 0
-0.400516 -0.200238 0
0.884211 -0.468973 0
0.693663 -0.246849 0
0.569222 -0.0174288 0
0.247213 -0.223014 0
0.0359391 -0.101559 0
-0.107519 0.0094987 0
-0.400516 -0.200238 0
-0.592377 -0.115557 0
-0.751084 -0.106864 0
0.114349 -0.415698 0
-0.225621 -0.341734 0
-0.400516 -0.200238 0
-0.333419 -0.0339372 0
-0.761897 -0.0067466 0
-1.06913 0.0509691 0
-0.394486 0.28863 0
-0.803277 0.330212 0
-1.06448 0.358471 0
-0.400516 -0.200238 0
-0.592377 -0.115557 0
-0.751084 -0.106864 0
-1.06913 0.0509691 0
-1.24677 0.103358 0
-1.3769 0.0803344 0
-1.06448 0.358471 0
-1.17098 0.2579 0
-1.25888 0.144123 0
0 0 0
0 0 0
0 0 0
0.30509 -0.0131568 0
0.334335 -0.0143605 0
0.36426 -0.0157589 0
0.556679 -0.0487685 0
0.605451 -0.0559699 0
0.659502 -0.0638645 0
0 0 0
0 0 0
0 0 0
0.36426 -0.0157589 0
0.398378 -0.0172619 0
0.435506 -0.0190847 0
0.659502 -0.0638645 0
0.719052 -0.072372 0
0.780836 -0.0796432 0
0.556679 -0.0487685 0
0.605451 -0.0559699 0
0.659502 -0.0638645 0
0.76627 -0.100676 0
0.83021 -0.111831 0
0.895345 -0.121666 0