# vtk DataFile Version 3.0
#This file was generated by the deal.II library on 2025/1/4 at 10:07:27
ASCII
DATASET UNSTRUCTURED_GRID

POINTS 8640 double
1.1 1.1 0
0.9625 1.09063 0
0.825 1.08125 0
1.0875 0.9625 0
0.951563 0.954297 0
0.815625 0.946094 0
1.075 0.825 0
0.940625 0.817969 0
0.80625 0.810937 0
0.825 1.08125 0
0.6875 1.07187 0
0.55 1.0625 0
0.815625 0.946094 0
0.679688 0.937891 0
0.54375 0.929688 0
0.80625 0.810937 0
0.671875 0.803906 0
0.5375 0.796875 0
1.075 0.825 0
0.940625 0.817969 0
0.80625 0.810937 0
1.0625 0.6875 0
0.929688 0.681641 0
0.796875 0.675781 0
1.05 0.55 0
0.91875 0.545313 0
0.7875 0.540625 0
0.80625 0.810937 0
0.671875 0.803906 0
0.5375 0.796875 0
0.796875 0.675781 0
0.664062 0.669922 0
0.53125 0.664062 0
0.7875 0.540625 0
0.65625 0.535937 0
0.525 0.53125 0
0.55 1.0625 0
0.4125 1.05313 0
0.275 1.04375 0
0.54375 0.929688 0
0.407813 0.921484 0
0.271875 0.913281 0
0.5375 0.796875 0
0.403125 0.789844 0
0.26875 0.782813 0
0.275 1.04375 0
0.1375 1.03437 0
0 1.025 0
0.271875 0.913281 0
0.135938 0.905078 0
0 0.896875 0
0.26875 0.782813 0
0.134375 0.775781 0
0 0.76875 0
0.5375 0.796875 0
0.403125 0.789844 0
0.26875 0.782813 0
0.53125 0.664062 0
0.398438 0.658203 0
0.265625 0.652344 0
0.525 0.53125 0
0.39375 0.526563 0
0.2625 0.521875 0
0.26875 0.782813 0
0.134375 0.775781 0
0 0.76875 0
0.265625 0.652344 0
0.132812 0.646484 0
0 0.640625 0
0.2625 0.521875 0
0.13125 0.517187 0
0 0.5125 0
1.05 0.55 0
0.91875 0.545313 0
0.7875 0.540625 0
1.0375 0.4125 0
0.907812 0.408984 0
0.778125 0.405469 0
1.025 0.275 0
0.896875 0.272656 0
0.76875 0.270313 0
0.7875 0.540625 0
0.65625 0.535937 0
0.525 0.53125 0
0.778125 0.405469 0
0.648438 0.401953 0
0.51875 0.398438 0
0.76875 0.270313 0
0.640625 0.267969 0
0.5125 0.265625 0
1.025 0.275 0
0.896875 0.272656 0
0.76875 0.270313 0
1.0125 0.1375 0
0.885937 0.136328 0
0.759375 0.135156 0
1 0 0
0.875 0 0
0.75 0 0
0.76875 0.270313 0
0.640625 0.267969 0
0.5125 0.265625 0
0.759375 0.135156 0
0.632812 0.133984 0
0.50625 0.132812 0
0.75 0 0
0.625 0 0
0.5 0 0
0.525 0.53125 0
0.39375 0.526563 0
0.2625 0.521875 0
0.51875 0.398438 0
0.389062 0.394922 0
0.259375 0.391406 0
0.5125 0.265625 0
0.384375 0.263281 0
0.25625 0.260937 0
0.2625 0.521875 0
0.13125 0.517187 0
0 0.5125 0
0.259375 0.391406 0
0.129688 0.387891 0
0 0.384375 0
0.25625 0.260937 0
0.128125 0.258594 0
0 0.25625 0
0.5125 0.265625 0
0.384375 0.263281 0
0.25625 0.260937 0
0.50625 0.132812 0
0.379687 0.131641 0
0.253125 0.130469 0
0.5 0 0
0.375 0 0
0.25 0 0
0.25625 0.260937 0
0.128125 0.258594 0
0 0.25625 0
0.253125 0.130469 0
0.126562 0.129297 0
0 0.128125 0
0.25 0 0
0.125 0 0
0 0 0
2 1 0
1.8875 1.0125 0
1.775 1.025 0
2 0.875 0
1.88594 0.885938 0
1.77188 0.896875 0
2 0.75 0
1.88437 0.759375 0
1.76875 0.76875 0
1.775 1.025 0
1.6625 1.0375 0
1.55 1.05 0
1.77188 0.896875 0
1.65781 0.907813 0
1.54375 0.91875 0
1.76875 0.76875 0
1.65313 0.778125 0
1.5375 0.7875 0
2 0.75 0
1.88437 0.759375 0
1.76875 0.76875 0
2 0.625 0
1.88281 0.632812 0
1.76562 0.640625 0
2 0.5 0
1.88125 0.50625 0
1.7625 0.5125 0
1.76875 0.76875 0
1.65313 0.778125 0
1.5375 0.7875 0
1.76562 0.640625 0
1.64844 0.648438 0
1.53125 0.65625 0
1.7625 0.5125 0
1.64375 0.51875 0
1.525 0.525 0
1.55 1.05 0
1.4375 1.0625 0
1.325 1.075 0
1.54375 0.91875 0
1.42969 0.929688 0
1.31563 0.940625 0
1.5375 0.7875 0
1.42188 0.796875 0
1.30625 0.80625 0
1.325 1.075 0
1.2125 1.0875 0
1.1 1.1 0
1.31563 0.940625 0
1.20156 0.951563 0
1.0875 0.9625 0
1.30625 0.80625 0
1.19063 0.815625 0
1.075 0.825 0
1.5375 0.7875 0
1.42188 0.796875 0
1.30625 0.80625 0
1.53125 0.65625 0
1.41406 0.664062 0
1.29688 0.671875 0
1.525 0.525 0
1.40625 0.53125 0
1.2875 0.5375 0
1.30625 0.80625 0
1.19063 0.815625 0
1.075 0.825 0
1.29688 0.671875 0
1.17969 0.679688 0
1.0625 0.6875 0
1.2875 0.5375 0
1.16875 0.54375 0
1.05 0.55 0
2 0.5 0
1.88125 0.50625 0
1.7625 0.5125 0
2 0.375 0
1.87969 0.379687 0
1.75938 0.384375 0
2 0.25 0
1.87813 0.253125 0
1.75625 0.25625 0
1.7625 0.5125 0
1.64375 0.51875 0
1.525 0.525 0
1.75938 0.384375 0
1.63906 0.389063 0
1.51875 0.39375 0
1.75625 0.25625 0
1.63438 0.259375 0
1.5125 0.2625 0
2 0.25 0
1.87813 0.253125 0
1.75625 0.25625 0
2 0.125 0
1.87656 0.126562 0
1.75313 0.128125 0
2 0 0
1.875 0 0
1.75 0 0
1.75625 0.25625 0
1.63438 0.259375 0
1.5125 0.2625 0
1.75313 0.128125 0
1.62969 0.129688 0
1.50625 0.13125 0
1.75 0 0
1.625 0 0
1.5 0 0
1.525 0.525 0
1.40625 0.53125 0
1.2875 0.5375 0
1.51875 0.39375 0
1.39844 0.398438 0
1.27813 0.403125 0
1.5125 0.2625 0
1.39062 0.265625 0
1.26875 0.26875 0
1.2875 0.5375 0
1.16875 0.54375 0
1.05 0.55 0
1.27813 0.403125 0
1.15781 0.407813 0
1.0375 0.4125 0
1.26875 0.26875 0
1.14688 0.271875 0
1.025 0.275 0
1.5125 0.2625 0
1.39062 0.265625 0
1.26875 0.26875 0
1.50625 0.13125 0
1.38281 0.132812 0
1.25937 0.134375 0
1.5 0 0
1.375 0 0
1.25 0 0
1.26875 0.26875 0
1.14688 0.271875 0
1.025 0.275 0
1.25937 0.134375 0
1.13594 0.135938 0
1.0125 0.1375 0
1.25 0 0
1.125 0 0
1 0 0
1 2 0
0.875 2.00625 0
0.75 2.0125 0
1.0125 1.8875 0
0.885938 1.8918 0
0.759375 1.89609 0
1.025 1.775 0
0.896875 1.77734 0
0.76875 1.77969 0
0.75 2.0125 0
0.625 2.01875 0
0.5 2.025 0
0.759375 1.89609 0
0.632812 1.90039 0
0.50625 1.90469 0
0.76875 1.77969 0
0.640625 1.78203 0
0.5125 1.78437 0
1.025 1.775 0
0.896875 1.77734 0
0.76875 1.77969 0
1.0375 1.6625 0
0.907813 1.66289 0
0.778125 1.66328 0
1.05 1.55 0
0.91875 1.54844 0
0.7875 1.54688 0
0.76875 1.77969 0
0.640625 1.78203 0
0.5125 1.78437 0
0.778125 1.66328 0
0.648438 1.66367 0
0.51875 1.66406 0
0.7875 1.54688 0
0.65625 1.54531 0
0.525 1.54375 0
0.5 2.025 0
0.375 2.03125 0
0.25 2.0375 0
0.50625 1.90469 0
0.379687 1.90898 0
0.253125 1.91328 0
0.5125 1.78437 0
0.384375 1.78672 0
0.25625 1.78906 0
0.25 2.0375 0
0.125 2.04375 0
0 2.05 0
0.253125 1.91328 0
0.126562 1.91758 0
0 1.92187 0
0.25625 1.78906 0
0.128125 1.79141 0
0 1.79375 0
0.5125 1.78437 0
0.384375 1.78672 0
0.25625 1.78906 0
0.51875 1.66406 0
0.389062 1.66445 0
0.259375 1.66484 0
0.525 1.54375 0
0.39375 1.54219 0
0.2625 1.54062 0
0.25625 1.78906 0
0.128125 1.79141 0
0 1.79375 0
0.259375 1.66484 0
0.129688 1.66523 0
0 1.66562 0
0.2625 1.54062 0
0.13125 1.53906 0
0 1.5375 0
1.05 1.55 0
0.91875 1.54844 0
0.7875 1.54688 0
1.0625 1.4375 0
0.929688 1.43398 0
0.796875 1.43047 0
1.075 1.325 0
0.940625 1.31953 0
0.80625 1.31406 0
0.7875 1.54688 0
0.65625 1.54531 0
0.525 1.54375 0
0.796875 1.43047 0
0.664062 1.42695 0
0.53125 1.42344 0
0.80625 1.31406 0
0.671875 1.30859 0
0.5375 1.30312 0
1.075 1.325 0
0.940625 1.31953 0
0.80625 1.31406 0
1.0875 1.2125 0
0.951563 1.20508 0
0.815625 1.19766 0
1.1 1.1 0
0.9625 1.09063 0
0.825 1.08125 0
0.80625 1.31406 0
0.671875 1.30859 0
0.5375 1.30312 0
0.815625 1.19766 0
0.679688 1.19023 0
0.54375 1.18281 0
0.825 1.08125 0
0.6875 1.07187 0
0.55 1.0625 0
0.525 1.54375 0
0.39375 1.54219 0
0.2625 1.54062 0
0.53125 1.42344 0
0.398438 1.41992 0
0.265625 1.41641 0
0.5375 1.30312 0
0.403125 1.29766 0
0.26875 1.29219 0
0.2625 1.54062 0
0.13125 1.53906 0
0 1.5375 0
0.265625 1.41641 0
0.132812 1.41289 0
0 1.40937 0
0.26875 1.29219 0
0.134375 1.28672 0
0 1.28125 0
0.5375 1.30312 0
0.403125 1.29766 0
0.26875 1.29219 0
0.54375 1.18281 0
0.407813 1.17539 0
0.271875 1.16797 0
0.55 1.0625 0
0.4125 1.05313 0
0.275 1.04375 0
0.26875 1.29219 0
0.134375 1.28672 0
0 1.28125 0
0.271875 1.16797 0
0.135938 1.16055 0
0 1.15312 0
0.275 1.04375 0
0.1375 1.03437 0
0 1.025 0
2.9 1.1 0
2.7875 1.0875 0
2.675 1.075 0
2.9125 0.9625 0
2.79844 0.951563 0
2.68438 0.940625 0
2.925 0.825 0
2.80938 0.815625 0
2.69375 0.80625 0
2.675 1.075 0
2.5625 1.0625 0
2.45 1.05 0
2.68438 0.940625 0
2.57031 0.929688 0
2.45625 0.91875 0
2.69375 0.80625 0
2.57812 0.796875 0
2.4625 0.7875 0
2.925 0.825 0
2.80938 0.815625 0
2.69375 0.80625 0
2.9375 0.6875 0
2.82031 0.679688 0
2.70312 0.671875 0
2.95 0.55 0
2.83125 0.54375 0
2.7125 0.5375 0
2.69375 0.80625 0
2.57812 0.796875 0
2.4625 0.7875 0
2.70312 0.671875 0
2.58594 0.664062 0
2.46875 0.65625 0
2.7125 0.5375 0
2.59375 0.53125 0
2.475 0.525 0
2.45 1.05 0
2.3375 1.0375 0
2.225 1.025 0
2.45625 0.91875 0
2.34219 0.907813 0
2.22813 0.896875 0
2.4625 0.7875 0
2.34688 0.778125 0
2.23125 0.76875 0
2.225 1.025 0
2.1125 1.0125 0
2 1 0
2.22813 0.896875 0
2.11406 0.885938 0
2 0.875 0
2.23125 0.76875 0
2.11563 0.759375 0
2 0.75 0
2.4625 0.7875 0
2.34688 0.778125 0
2.23125 0.76875 0
2.46875 0.65625 0
2.35156 0.648438 0
2.23438 0.640625 0
2.475 0.525 0
2.35625 0.51875 0
2.2375 0.5125 0
2.23125 0.76875 0
2.11563 0.759375 0
2 0.75 0
2.23438 0.640625 0
2.11719 0.632812 0
2 0.625 0
2.2375 0.5125 0
2.11875 0.50625 0
2 0.5 0
2.95 0.55 0
2.83125 0.54375 0
2.7125 0.5375 0
2.9625 0.4125 0
2.84219 0.407813 0
2.72188 0.403125 0
2.975 0.275 0
2.85313 0.271875 0
2.73125 0.26875 0
2.7125 0.5375 0
2.59375 0.53125 0
2.475 0.525 0
2.72188 0.403125 0
2.60156 0.398438 0
2.48125 0.39375 0
2.73125 0.26875 0
2.60938 0.265625 0
2.4875 0.2625 0
2.975 0.275 0
2.85313 0.271875 0
2.73125 0.26875 0
2.9875 0.1375 0
2.86406 0.135938 0
2.74063 0.134375 0
3 0 0
2.875 0 0
2.75 0 0
2.73125 0.26875 0
2.60938 0.265625 0
2.4875 0.2625 0
2.74063 0.134375 0
2.61719 0.132812 0
2.49375 0.13125 0
2.75 0 0
2.625 0 0
2.5 0 0
2.475 0.525 0
2.35625 0.51875 0
2.2375 0.5125 0
2.48125 0.39375 0
2.36094 0.389063 0
2.24062 0.384375 0
2.4875 0.2625 0
2.36562 0.259375 0
2.24375 0.25625 0
2.2375 0.5125 0
2.11875 0.50625 0
2 0.5 0
2.24062 0.384375 0
2.12031 0.379687 0
2 0.375 0
2.24375 0.25625 0
2.12188 0.253125 0
2 0.25 0
2.4875 0.2625 0
2.36562 0.259375 0
2.24375 0.25625 0
2.49375 0.13125 0
2.37031 0.129688 0
2.24688 0.128125 0
2.5 0 0
2.375 0 0
2.25 0 0
2.24375 0.25625 0
2.12188 0.253125 0
2 0.25 0
2.24688 0.128125 0
2.12344 0.126562 0
2 0.125 0
2.25 0 0
2.125 0 0
2 0 0
4 1 0
3.8625 1.0125 0
3.725 1.025 0
4 0.875 0
3.86406 0.885938 0
3.72813 0.896875 0
4 0.75 0
3.86563 0.759375 0
3.73125 0.76875 0
3.725 1.025 0
3.5875 1.0375 0
3.45 1.05 0
3.72813 0.896875 0
3.59219 0.907813 0
3.45625 0.91875 0
3.73125 0.76875 0
3.59688 0.778125 0
3.4625 0.7875 0
4 0.75 0
3.86563 0.759375 0
3.73125 0.76875 0
4 0.625 0
[...]
POINT_DATA 8640
VECTORS v double
1.23298 -0.257172 0
1.21413 -0.215579 0
1.18898 -0.173157 0
1.16013 -0.227809 0
1.13189 -0.192398 0
1.10541 -0.160608 0
1.07284 -0.197459 0
1.04062 -0.168635 0
1.01041 -0.141339 0
1.18898 -0.173157 0
1.17787 -0.14224 0
1.16175 -0.109252 0
1.10541 -0.160608 0
1.08636 -0.130842 0
1.06883 -0.10401 0
1.01041 -0.141339 0
0.986032 -0.115869 0
0.965054 -0.0924 0
1.07284 -0.197459 0
1.04062 -0.168635 0
1.01041 -0.141339 0
0.96057 -0.15374 0
0.924932 -0.133193 0
0.892488 -0.113876 0
0.825918 -0.119234 0
0.791626 -0.104631 0
0.759647 -0.0903478 0
1.01041 -0.141339 0
0.986032 -0.115869 0
0.965054 -0.0924 0
0.892488 -0.113876 0
0.86575 -0.0948491 0
0.84283 -0.076624 0
0.759647 -0.0903478 0
0.732737 -0.0758294 0
0.709344 -0.0617244 0
1.16175 -0.109252 0
1.15316 -0.0833614 0
1.14069 -0.0544348 0
1.06883 -0.10401 0
1.05525 -0.0786078 0
1.043 -0.0530069 0
0.965054 -0.0924 0
0.947682 -0.0693938 0
0.93429 -0.0468576 0
1.14069 -0.0544348 0
1.13399 -0.0287851 0
1.125 0 0
1.043 -0.0530069 0
1.03334 -0.0268422 0
1.02539 0 0
0.93429 -0.0468576 0
0.921956 -0.0235175 0
0.914062 0 0
0.965054 -0.0924 0
0.947682 -0.0693938 0
0.93429 -0.0468576 0
0.84283 -0.076624 0
0.824386 -0.0580546 0
0.810391 -0.0397883 0
0.709344 -0.0617244 0
0.690398 -0.0472222 0
0.675878 -0.0327224 0
0.93429 -0.0468576 0
0.921956 -0.0235175 0
0.914062 0 0
0.810391 -0.0397883 0
0.798386 -0.0203436 0
0.791016 0 0
0.675878 -0.0327224 0
0.663578 -0.0169507 0
0.65625 0 0
0.825918 -0.119234 0
0.791626 -0.104631 0
0.759647 -0.0903478 0
0.67689 -0.0801735 0
0.642978 -0.0705564 0
0.611177 -0.0611503 0
0.504237 -0.0472276 0
0.473497 -0.0419968 0
0.444656 -0.0369207 0
0.759647 -0.0903478 0
0.732737 -0.0758294 0
0.709344 -0.0617244 0
0.611177 -0.0611503 0
0.584238 -0.0516833 0
0.560754 -0.0423694 0
0.444656 -0.0369207 0
0.419994 -0.0317395 0
0.398489 -0.0266413 0
0.504237 -0.0472276 0
0.473497 -0.0419968 0
0.444656 -0.0369207 0
0.30059 -0.014454 0
0.276395 -0.0126891 0
0.254318 -0.0111057 0
0 0 0
0 0 0
0 0 0
0.444656 -0.0369207 0
0.419994 -0.0317395 0
0.398489 -0.0266413 0
0.254318 -0.0111057 0
0.234664 -0.00943133 0
0.218117 -0.00789808 0
0 0 0
0 0 0
0 0 0
0.709344 -0.0617244 0
0.690398 -0.0472222 0
0.675878 -0.0327224 0
0.560754 -0.0423694 0
0.541701 -0.0324511 0
0.527352 -0.0224524 0
0.398489 -0.0266413 0
0.38075 -0.0210652 0
0.367519 -0.0154081 0
0.675878 -0.0327224 0
0.663578 -0.0169507 0
0.65625 0 0
0.527352 -0.0224524 0
0.515873 -0.011474 0
0.509766 0 0
0.367519 -0.0154081 0
0.356945 -0.00869594 0
0.351562 0 0
0.398489 -0.0266413 0
0.38075 -0.0210652 0
0.367519 -0.0154081 0
0.218117 -0.00789808 0
0.203714 -0.00600485 0
0.193686 -0.0042298 0
0 0 0
0 0 0
0 0 0
0.367519 -0.0154081 0
0.356945 -0.00869594 0
0.351562 0 0
0.193686 -0.0042298 0
0.185183 -0.00207456 0
0.181641 0 0
0 0 0
0 0 0
0 0 0
1.68461 -0.327345 0
1.62289 -0.373745 0
1.54088 -0.398819 0
1.53591 -0.247722 0
1.47937 -0.286438 0
1.41681 -0.311003 0
1.39 -0.191293 0
1.35056 -0.227843 0
1.30637 -0.252774 0
1.54088 -0.398819 0
1.47102 -0.397862 0
1.39281 -0.38369 0
1.41681 -0.311003 0
1.35883 -0.319935 0
1.2978 -0.317025 0
1.30637 -0.252774 0
1.2602 -0.263999 0
1.21141 -0.263985 0
1.39 -0.191293 0
1.35056 -0.227843 0
1.30637 -0.252774 0
1.26244 -0.145323 0
1.22687 -0.16734 0
1.18632 -0.183161 0
1.09349 -0.0952995 0
1.06075 -0.114062 0
1.02436 -0.128448 0
1.30637 -0.252774 0
1.2602 -0.263999 0
1.21141 -0.263985 0
1.18632 -0.183161 0
1.14304 -0.191223 0
1.09732 -0.192535 0
1.02436 -0.128448 0
0.987989 -0.137824 0
0.949196 -0.141875 0
1.39281 -0.38369 0
1.34166 -0.358816 0
1.29076 -0.325883 0
1.2978 -0.317025 0
1.25555 -0.301951 0
1.21222 -0.280951 0
1.21141 -0.263985 0
1.17125 -0.254197 0
1.13179 -0.238312 0
1.29076 -0.325883 0
1.26252 -0.293393 0
1.23298 -0.257172 0
1.21222 -0.280951 0
1.18571 -0.254721 0
1.16013 -0.227809 0
1.13179 -0.238312 0
1.10151 -0.218713 0
1.07284 -0.197459 0
1.21141 -0.263985 0
1.17125 -0.254197 0
1.13179 -0.238312 0
1.09732 -0.192535 0
1.05861 -0.187925 0
1.02029 -0.179362 0
0.949196 -0.141875 0
0.915967 -0.141107 0
0.882139 -0.1367 0
1.13179 -0.238312 0
1.10151 -0.218713 0
1.07284 -0.197459 0
1.02029 -0.179362 0
0.989443 -0.16768 0
0.96057 -0.15374 0
0.882139 -0.1367 0
0.853714 -0.129101 0
0.825918 -0.119234 0
1.09349 -0.0952995 0
1.06075 -0.114062 0
1.02436 -0.128448 0
0.932363 -0.0671238 0
0.904363 -0.0795282 0
0.871439 -0.0888356 0
0.749016 -0.0314839 0
0.722355 -0.0397028 0
0.690324 -0.046237 0
1.02436 -0.128448 0
0.987989 -0.137824 0
0.949196 -0.141875 0
0.871439 -0.0888356 0
0.838233 -0.0943337 0
0.801265 -0.0962223 0
0.690324 -0.046237 0
0.658673 -0.0506158 0
0.623367 -0.0528883 0
0.749016 -0.0314839 0
0.722355 -0.0397028 0
0.690324 -0.046237 0
0.474571 -0.00941882 0
0.461165 -0.0122621 0
0.439927 -0.0145662 0
0 0 0
0 0 0
0 0 0
0.690324 -0.046237 0
0.658673 -0.0506158 0
0.623367 -0.0528883 0
0.439927 -0.0145662 0
0.419655 -0.0160962 0
0.393509 -0.0167331 0
0 0 0
0 0 0
0 0 0
0.949196 -0.141875 0
0.915967 -0.141107 0
0.882139 -0.1367 0
0.801265 -0.0962223 0
0.768724 -0.0949926 0
0.734668 -0.091584 0
0.623367 -0.0528883 0
0.592227 -0.0532842 0
0.559606 -0.052399 0
0.882139 -0.1367 0
0.853714 -0.129101 0
0.825918 -0.119234 0
0.734668 -0.091584 0
0.705582 -0.0866423 0
0.67689 -0.0801735 0
0.559606 -0.052399 0
0.531818 -0.0504142 0
0.504237 -0.0472276 0
0.623367 -0.0528883 0
0.592227 -0.0532842 0
0.559606 -0.052399 0
0.393509 -0.0167331 0
0.370763 -0.0168617 0
0.345154 -0.0163453 0
0 0 0
0 0 0
0 0 0
0.559606 -0.052399 0
0.531818 -0.0504142 0
0.504237 -0.0472276 0
0.345154 -0.0163453 0
0.323023 -0.0157 0
0.30059 -0.014454 0
0 0 0
0 0 0
0 0 0
1.25058 0.00736559 0
1.3225 0.00466551 0
1.37903 0.000972636 0
1.26114 -0.0675781 0
1.32557 -0.0528352 0
1.3799 -0.0410772 0
1.25264 -0.129651 0
1.31302 -0.100651 0
1.36469 -0.0780957 0
1.37903 0.000972636 0
1.42015 -0.00218254 0
1.45046 -0.00475927 0
1.3799 -0.0410772 0
1.41749 -0.0345902 0
1.44754 -0.0285954 0
1.36469 -0.0780957 0
1.40038 -0.0630209 0
1.42966 -0.0497583 0
1.25264 -0.129651 0
1.31302 -0.100651 0
1.36469 -0.0780957 0
1.27006 -0.201796 0
1.31715 -0.155528 0
1.3581 -0.119604 0
1.28291 -0.232499 0
1.31314 -0.182057 0
1.34074 -0.141381 0
1.36469 -0.0780957 0
1.40038 -0.0630209 0
1.42966 -0.0497583 0
1.3581 -0.119604 0
1.38637 -0.0950391 0
1.41046 -0.0737249 0
1.34074 -0.141381 0
1.36081 -0.112685 0
1.37903 -0.0867154 0
1.45046 -0.00475927 0
1.47309 -0.00576546 0
1.48713 -0.00546465 0
1.44754 -0.0285954 0
1.46819 -0.0234623 0
1.48247 -0.0167875 0
1.42966 -0.0497583 0
1.4499 -0.0383629 0
1.4648 -0.0261715 0
1.48713 -0.00546465 0
1.49742 -0.00337287 0
1.5 0 0
1.48247 -0.0167875 0
1.49111 -0.0089893 0
1.49414 0 0
1.4648 -0.0261715 0
1.47325 -0.0136517 0
1.47656 0 0
1.42966 -0.0497583 0
1.4499 -0.0383629 0
1.4648 -0.0261715 0
1.41046 -0.0737249 0
1.42646 -0.0560935 0
1.439 -0.0379646 0
1.37903 -0.0867154 0
1.39075 -0.0651672 0
1.40087 -0.0432853 0
1.4648 -0.0261715 0
1.47325 -0.0136517 0
1.47656 0 0
1.439 -0.0379646 0
1.44473 -0.0198901 0
1.44727 0 0
1.40087 -0.0432853 0
1.40441 -0.0224716 0
1.40625 0 0
1.28291 -0.232499 0
1.31314 -0.182057 0
1.34074 -0.141381 0
1.2816 -0.268308 0
1.3011 -0.214016 0
1.31571 -0.167776 0
1.28419 -0.274273 0
1.28697 -0.220998 0
1.28642 -0.174731 0
1.34074 -0.141381 0
1.36081 -0.112685 0
1.37903 -0.0867154 0
1.31571 -0.167776 0
1.32917 -0.134834 0
1.33955 -0.103542 0
1.28642 -0.174731 0
1.28991 -0.14049 0
1.29169 -0.107697 0
1.28419 -0.274273 0
1.28697 -0.220998 0
1.28642 -0.174731 0
1.2595 -0.271092 0
1.25368 -0.226346 0
1.23985 -0.17983 0
1.23298 -0.257172 0
1.21413 -0.215579 0
1.18898 -0.173157 0
1.28642 -0.174731 0
1.28991 -0.14049 0
1.29169 -0.107697 0
1.23985 -0.17983 0
1.23747 -0.1479 0
1.23042 -0.113089 0
1.18898 -0.173157 0
1.17787 -0.14224 0
1.16175 -0.109252 0
1.37903 -0.0867154 0
1.39075 -0.0651672 0
1.40087 -0.0432853 0
1.33955 -0.103542 0
1.34695 -0.0781418 0
1.35225 -0.0521527 0
1.29169 -0.107697 0
1.29281 -0.0808765 0
1.2929 -0.053251 0
1.40087 -0.0432853 0
1.40441 -0.0224716 0
1.40625 0 0
1.35225 -0.0521527 0
1.3537 -0.027777 0
1.35352 0 0
1.2929 -0.053251 0
1.29116 -0.0278121 0
1.28906 0 0
1.29169 -0.107697 0
1.29281 -0.0808765 0
1.2929 -0.053251 0
1.23042 -0.113089 0
1.22747 -0.0864783 0
1.22165 -0.05672 0
1.16175 -0.109252 0
1.15316 -0.0833614 0
1.14069 -0.0544348 0
1.2929 -0.053251 0
1.29116 -0.0278121 0
1.28906 0 0
1.22165 -0.05672 0
1.21799 -0.0306152 0
1.21289 0 0
1.14069 -0.0544348 0
1.13399 -0.0287851 0
1.125 0 0
1.58626 0.298411 0
1.72735 0.239794 0
1.80609 0.160443 0
1.61316 0.181576 0
1.65877 0.166766 0
1.71737 0.123486 0
1.44381 0.146545 0
1.47729 0.135303 0
1.50708 0.104732 0
1.80609 0.160443 0
1.8699 0.0714874 0
1.88473 -0.0198369 0
1.71737 0.123486 0
1.72585 0.0619845 0
1.73643 -0.0108052 0
1.50708 0.104732 0
1.52291 0.059091 0
1.5299 0.00476581 0
1.44381 0.146545 0
1.47729 0.135303 0
1.50708 0.104732 0
1.32757 0.0661168 0
1.34592 0.0579121 0
1.3725 0.0391421 0
1.23162 0.0482661 0
1.23553 0.0456441 0
1.24138 0.035633 0
1.50708 0.104732 0
1.52291 0.059091 0
1.5299 0.00476581 0
1.3725 0.0391421 0
1.37779 0.012467 0
1.3829 -0.0199894 0
1.24138 0.035633 0
1.23445 0.0177713 0
1.22681 -0.00433385 0
1.88473 -0.0198369 0
1.88054 -0.108573 0
1.82947 -0.19468 0
1.73643 -0.0108052 0
1.70212 -0.0847513 0
1.66315 -0.150913 0
1.5299 0.00476581 0
1.51295 -0.0515563 0
1.48686 -0.104974 0
1.82947 -0.19468 0
1.76562 -0.262817 0
1.68461 -0.327345 0
1.66315 -0.150913 0
1.6042 -0.205465 0
1.53591 -0.247722 0
1.48686 -0.104974 0
1.43988 -0.15045 0
1.39 -0.191293 0
1.5299 0.00476581 0
1.51295 -0.0515563 0
1.48686 -0.104974 0
1.3829 -0.0199894 0
1.36577 -0.0548876 0
1.34396 -0.0895724 0
1.22681 -0.00433385 0
1.2041 -0.0296057 0
1.17788 -0.0544424 0
1.48686 -0.104974 0
1.43988 -0.15045 0
1.39 -0.191293 0
1.34396 -0.0895724 0
1.30646 -0.120656 0
1.26244 -0.145323 0
1.17788 -0.0544424 0
1.13815 -0.0766555 0
1.09349 -0.0952995 0
1.23162 0.0482661 0
1.23553 0.0456441 0
1.24138 0.035633 0
1.06336 0.034292 0
1.06017 0.0316067 0
1.06157 0.0242443 0
0.855337 0.0298848 0
0.855278 0.0289008 0
0.857345 0.0253729 0
1.24138 0.035633 0
1.23445 0.0177713 0
1.22681 -0.00433385 0
1.06157 0.0242443 0
1.05323 0.0116441 0
1.04454 -0.00356968 0
0.857345 0.0253729 0
0.851522 0.0181304 0
0.844422 0.00910581 0
0.855337 0.0298848 0
0.855278 0.0289008 0
0.857345 0.0253729 0
0.483154 0.0110876 0
0.492313 0.0107276 0
0.505175 0.00968603 0
0 0 0
0 0 0
0 0 0
0.857345 0.0253729 0
0.851522 0.0181304 0
0.844422 0.00910581 0
0.505175 0.00968603 0
0.511596 0.00756407 0
0.51701 0.00464424 0
0 0 0
0 0 0
0 0 0
1.22681 -0.00433385 0
1.2041 -0.0296057 0
1.17788 -0.0544424 0
1.04454 -0.00356968 0
1.02459 -0.0208822 0
1.00089 -0.0378055 0
0.844422 0.00910581 0
0.828263 -0.00179296 0
0.808497 -0.0127376 0
1.17788 -0.0544424 0
1.13815 -0.0766555 0
1.09349 -0.0952995 0
1.00089 -0.0378055 0
0.968961 -0.0535968 0
0.932363 -0.0671238 0
0.808497 -0.0127376 0
0.781382 -0.0229735 0
0.749016 -0.0314839 0
0.844422 0.00910581 0
0.828263 -0.00179296 0
0.808497 -0.0127376 0
0.51701 0.00464424 0
0.514972 0.00130498 0
0.507748 -0.00255147 0
0 0 0
0 0 0
0 0 0
0.808497 -0.0127376 0
0.781382 -0.0229735 0
0.749016 -0.0314839 0
0.507748 -0.00255147 0
0.494869 -0.00606711 0
0.474571 -0.00941882 0
0 0 0
0 0 0
0 0 0
1.55322 -0.272835 0
1.48732 -0.269535 0
1.39 -0.247663 0
1.62695 -0.167873 0
1.52175 -0.188818 0
1.43583 -0.19775 0
1.54673 -0.100839 0
1.50365 -0.130999 0
1.45032 -0.145419 0
1.39 -0.247663 0
1.33968 -0.134737 0
1.25772 -0.029531 0
1.43583 -0.19775 0
1.37225 -0.150472 0
1.35508 -0.0819416 0
1.45032 -0.145419 0
1.40399 -0.107145 0
1.35127 -0.052738 0
1.54673 -0.100839 0
1.50365 -0.130999 0
1.45032 -0.145419 0
1.42456 -0.0470814 0
1.37725 -0.0597773 0
1.33224 -0.0673513 0
1.2545 -0.00973522 0
1.2307 -0.0257208 0
1.21202 -0.0370252 0
1.45032 -0.145419 0
1.40399 -0.107145 0
1.35127 -0.052738 0
1.33224 -0.0673513 0
1.28416 -0.0491218 0
1.25767 -0.0290635 0
1.21202 -0.0370252 0
1.19848 -0.0323277 0
1.19235 -0.0210615 0
1.25772 -0.029531 0
1.28069 0.0867484 0
1.35394 0.180219 0
1.35508 -0.0819416 0
1.38173 0.0234519 0
1.43887 0.102864 0
1.35127 -0.052738 0
1.33029 0.0162589 0
1.34169 0.0730741 0
1.35394 0.180219 0
1.46432 0.269405 0
1.58626 0.298411 0
1.43887 0.102864 0
1.51159 0.160064 0
1.61316 0.181576 0
1.34169 0.0730741 0
1.38523 0.123682 0
1.44381 0.146545 0
1.35127 -0.052738 0
1.33029 0.0162589 0
1.34169 0.0730741 0
1.25767 -0.0290635 0
1.24653 0.00402528 0
1.25864 0.0323854 0
1.19235 -0.0210615 0
1.18756 0.000864765 0
1.19642 0.0216111 0
1.34169 0.0730741 0
1.38523 0.123682 0
1.44381 0.146545 0
1.25864 0.0323854 0
1.28256 0.0566059 0
1.32757 0.0661168 0
1.19642 0.0216111 0
1.20975 0.0403951 0
1.23162 0.0482661 0
1.2545 -0.00973522 0
1.2307 -0.0257208 0
1.21202 -0.0370252 0
1.07147 0.00353129 0
1.06732 -0.00417031 0
1.0615 -0.00881631 0
0.771215 0.0100982 0
0.781242 0.0057151 0
0.78997 0.00302112 0
1.21202 -0.0370252 0
1.19848 -0.0323277 0
1.19235 -0.0210615 0
1.0615 -0.00881631 0
1.05007 -0.00431403 0
1.04413 0.0020125 0
0.78997 0.00302112 0
0.794291 0.00420692 0
0.803644 0.00725414 0
0.771215 0.0100982 0
0.781242 0.0057151 0
0.78997 0.00302112 0
0.391439 9.13523e-05 0
0.39105 0.00048361 0
0.402014 0.000881209 0
0 0 0
0 0 0
0 0 0
0.78997 0.00302112 0
0.794291 0.00420692 0
0.803644 0.00725414 0
0.402014 0.000881209 0
0.405481 0.0021085 0
0.41738 0.00371256 0
0 0 0
0 0 0
0 0 0
1.19235 -0.0210615 0
1.18756 0.000864765 0
1.19642 0.0216111 0
1.04413 0.0020125 0
1.03829 0.012025 0
1.04228 0.0220206 0
0.803644 0.00725414 0
0.811488 0.0132113 0
0.825995 0.0199877 0
1.19642 0.0216111 0
1.20975 0.0403951 0
1.23162 0.0482661 0
1.04228 0.0220206 0
1.04781 0.0303345 0
1.06336 0.034292 0
0.825995 0.0199877 0
0.838555 0.0263927 0
0.855337 0.0298848 0
0.803644 0.00725414 0
0.811488 0.0132113 0
0.825995 0.0199877 0
0.41738 0.00371256 0
0.425987 0.00582579 0
0.444135 0.00817559 0
0 0 0
0 0 0
0 0 0
0.825995 0.0199877 0
0.838555 0.0263927 0
0.855337 0.0298848 0
0.444135 0.00817559 0
0.459578 0.00962541 0
0.483154 0.0110876 0
0 0 0
0 0 0
0 0 0
0.917684 -1.4129 0
0.873834 -1.47028 0
0.777864 -1.27658 0
0.743617 -1.30995 0
0.610375 -1.32362 0
0.485964 -1.1147 0
0.618318 -1.16136 0
0.430155 -1.1799 0
0.271139 -0.986901 0
0.777864 -1.27658 0
0.605766 -0.997226 0
0.508798 -0.459405 0
0.485964 -1.1147 0
0.293064 -0.77121 0
0.176573 -0.119879 0
0.271139 -0.986901 0
0.0372874 -0.644932 0
-0.122587 -0.00750922 0
0.618318 -1.16136 0
0.430155 -1.1799 0
0.271139 -0.986901 0
0.586116 -0.930423 0
0.321748 -0.954378 0
0.174227 -0.795242 0
0.660274 -0.656903 0
0.334224 -0.694892 0
0.176332 -0.597153 0
0.271139 -0.986901 0
0.0372874 -0.644932 0
-0.122587 -0.00750922 0
0.174227 -0.795242 0
-0.0887863 -0.352977 0
-0.24903 0.24755 0
0.176332 -0.597153 0
-0.0827607 -0.210936 0
-0.212565 0.261328 0
0.508798 -0.459405 0
0.31046 0.0426583 0
0.103363 0.480892 0
0.176573 -0.119879 0
-0.0691576 0.278403 0
-0.312158 0.657236 0
-0.122587 -0.00750922 0
-0.358598 0.471789 0
-0.525799 0.944688 0
0.103363 0.480892 0
-0.11276 0.899131 0
-0.324649 1.17818 0
-0.312158 0.657236 0
-0.472215 1.08164 0
-0.564446 1.26533 0
-0.525799 0.944688 0
-0.639525 1.24795 0
-0.597305 1.26901 0
-0.122587 -0.00750922 0
-0.358598 0.471789 0
-0.525799 0.944688 0
-0.24903 0.24755 0
-0.354221 0.701745 0
-0.44007 0.998423 0
-0.212565 0.261328 0
-0.191225 0.540744 0
-0.118364 0.87895 0
-0.525799 0.944688 0
-0.639525 1.24795 0
-0.597305 1.26901 0
-0.44007 0.998423 0
-0.418856 1.22158 0
-0.195269 1.10747 0
-0.118364 0.87895 0
0.160033 1.05812 0
0.401688 0.965279 0
0.660274 -0.656903 0
0.334224 -0.694892 0
0.176332 -0.597153 0
0.614296 -0.51036 0
0.41671 -0.533041 0
0.201186 -0.448096 0
0.760811 -0.442731 0
0.668184 -0.360017 0
0.471182 -0.232848 0
0.176332 -0.597153 0
-0.0827607 -0.210936 0
-0.212565 0.261328 0
0.201186 -0.448096 0
0.102511 -0.0721912 0
0.0748822 0.315019 0
0.471182 -0.232848 0
0.534289 0.0485603 0
0.583289 0.186663 0
0.760811 -0.442731 0
0.668184 -0.360017 0
0.471182 -0.232848 0
1.13879 -0.352675 0
1.04988 -0.332915 0
0.935553 -0.301779 0
1.55322 -0.272835 0
1.48732 -0.269535 0
1.39 -0.247663 0
0.471182 -0.232848 0
0.534289 0.0485603 0
0.583289 0.186663 0
0.935553 -0.301779 0
1.00035 -0.173083 0
1.03773 -0.0530132 0
1.39 -0.247663 0
1.33968 -0.134737 0
1.25772 -0.029531 0
-0.212565 0.261328 0
-0.191225 0.540744 0
-0.118364 0.87895 0
0.0748822 0.315019 0
0.278655 0.562786 0
0.595795 0.736994 0
0.583289 0.186663 0
0.84076 0.283474 0
1.02031 0.423765 0
-0.118364 0.87895 0
0.160033 1.05812 0
0.401688 0.965279 0
0.595795 0.736994 0
0.80407 0.832168 0
0.954381 0.834197 0
1.02031 0.423765 0
1.31599 0.596968 0
1.48606 0.595302 0
0.583289 0.186663 0
0.84076 0.283474 0
1.02031 0.423765 0
1.03773 -0.0530132 0
1.18557 0.145206 0
1.28323 0.292145 0
1.25772 -0.029531 0
1.28069 0.0867484 0
1.35394 0.180219 0
1.02031 0.423765 0
1.31599 0.596968 0
1.48606 0.595302 0
1.28323 0.292145 0
1.46303 0.415103 0
1.65826 0.483699 0
1.35394 0.180219 0
1.46432 0.269405 0
1.58626 0.298411 0
1.29567 -0.535829 0
1.48183 -0.610896 0
1.6998 -0.646272 0
1.41596 -0.69947 0
1.59125 -0.779606 0
1.73077 -0.791767 0
1.50373 -0.858391 0
1.5953 -0.909352 0
1.70478 -0.921369 0
1.6998 -0.646272 0
1.86357 -0.629029 0
1.96629 -0.550907 0
1.73077 -0.791767 0
1.8374 -0.779615 0
2.00027 -0.728957 0
1.70478 -0.921369 0
1.9417 -0.930896 0
2.23175 -0.854754 0
1.50373 -0.858391 0
1.5953 -0.909352 0
1.70478 -0.921369 0
1.48321 -0.997894 0
1.57296 -1.02537 0
1.81331 -1.13448 0
1.41497 -1.07375 0
1.61134 -1.1781 0
1.84352 -1.32853 0
1.70478 -0.921369 0
1.9417 -0.930896 0
2.23175 -0.854754 0
1.81331 -1.13448 0
2.02289 -1.10002 0
2.09345 -0.931247 0
1.84352 -1.32853 0
1.83329 -1.15509 0
1.75528 -0.916008 0
1.96629 -0.550907 0
2.02317 -0.467419 0
2.09917 -0.358266 0
2.00027 -0.728957 0
2.15429 -0.62896 0
2.25871 -0.463496 0
2.23175 -0.854754 0
2.27518 -0.664503 0
2.20409 -0.439161 0
2.09917 -0.358266 0
2.14526 -0.231147 0
2.17535 -0.0952704 0
2.25871 -0.463496 0
2.2549 -0.273757 0
2.20625 -0.0849225 0
2.20409 -0.439161 0
1.97015 -0.221812 0
1.69708 -0.0414127 0
2.23175 -0.854754 0
2.27518 -0.664503 0
2.20409 -0.439161 0
2.09345 -0.931247 0
1.93103 -0.645103 0
1.73813 -0.316156 0
1.75528 -0.916008 0
1.60875 -0.543381 0
1.40592 -0.108832 0
2.20409 -0.439161 0
1.97015 -0.221812 0
1.69708 -0.0414127 0
1.73813 -0.316156 0
1.44115 0.0244756 0
1.15872 0.227885 0
1.40592 -0.108832 0
1.16097 0.233149 0
0.863459 0.508569 0
1.41497 -1.07375 0
1.61134 -1.1781 0
1.84352 -1.32853 0
1.32172 -1.20431 0
1.52241 -1.37485 0
1.57062 -1.39807 0
1.21564 -1.34155 0
1.3483 -1.50896 0
1.3233 -1.43626 0
1.84352 -1.32853 0
1.83329 -1.15509 0
1.75528 -0.916008 0
1.57062 -1.39807 0
1.55884 -1.16988 0
1.56194 -0.841315 0
1.3233 -1.43626 0
1.34988 -1.15743 0
1.20854 -0.613476 0
1.21564 -1.34155 0
1.3483 -1.50896 0
1.3233 -1.43626 0
1.07268 -1.39898 0
1.12896 -1.51478 0
1.0796 -1.35942 0
0.917684 -1.4129 0
0.873834 -1.47028 0
0.777864 -1.27658 0
1.3233 -1.43626 0
1.34988 -1.15743 0
1.20854 -0.613476 0
1.0796 -1.35942 0
0.962885 -1.0231 0
0.756432 -0.509899 0
0.777864 -1.27658 0
0.605766 -0.997226 0
0.508798 -0.459405 0
1.75528 -0.916008 0
1.60875 -0.543381 0
1.40592 -0.108832 0
1.56194 -0.841315 0
1.34777 -0.351056 0
1.14618 0.0462485 0
1.20854 -0.613476 0
0.931114 -0.168391 0
0.795595 0.195752 0
1.40592 -0.108832 0
1.16097 0.233149 0
0.863459 0.508569 0
1.14618 0.0462485 0
0.916728 0.361733 0
0.630742 0.67522 0
0.795595 0.195752 0
0.550403 0.521514 0
0.297322 0.876967 0
1.20854 -0.613476 0
0.931114 -0.168391 0
0.795595 0.195752 0
0.756432 -0.509899 0
0.593315 -0.115867 0
0.471228 0.353861 0
0.508798 -0.459405 0
0.31046 0.0426583 0
0.103363 0.480892 0
0.795595 0.195752 0
0.550403 0.521514 0
0.297322 0.876967 0
0.471228 0.353861 0
0.245912 0.684225 0
-0.0142411 0.99904 0
0.103363 0.480892 0
-0.11276 0.899131 0
-0.324649 1.17818 0
0 0 0
0 0 0
0 0 0
0.192954 -0.0228174 0
0.252467 -0.024606 0
0.287237 -0.0253627 0
0.443029 -0.0622602 0
0.506107 -0.0741414 0
0.560356 -0.0845215 0
0 0 0
0 0 0
0 0 0
0.287237 -0.0253627 0
0.338564 -0.025069 0
0.382635 -0.024586 0
0.560356 -0.0845215 0