# vtk DataFile Version 3.0
#This file was generated by the deal.II library on 2025/1/4 at 10:16:01
ASCII
DATASET UNSTRUCTURED_GRID

POINTS 8640 double
1.1 1.1 0
0.9625 1.09063 0
0.825 1.08125 0
1.0875 0.9625 0
0.951563 0.954297 0
0.815625 0.946094 0
1.075 0.825 0
0.940625 0.817969 0
0.80625 0.810937 0
0.825 1.08125 0
0.6875 1.07187 0
0.55 1.0625 0
0.815625 0.946094 0
0.679688 0.937891 0
0.54375 0.929688 0
0.80625 0.810937 0
0.671875 0.803906 0
0.5375 0.796875 0
1.075 0.825 0
0.940625 0.817969 0
0.80625 0.810937 0
1.0625 0.6875 0
0.929688 0.681641 0
0.796875 0.675781 0
1.05 0.55 0
0.91875 0.545313 0
0.7875 0.540625 0
0.80625 0.810937 0
0.671875 0.803906 0
0.5375 0.796875 0
0.796875 0.675781 0
0.664062 0.669922 0
0.53125 0.664062 0
0.7875 0.540625 0
0.65625 0.535937 0
0.525 0.53125 0
0.55 1.0625 0
0.4125 1.05313 0
0.275 1.04375 0
0.54375 0.929688 0
0.407813 0.921484 0
0.271875 0.913281 0
0.5375 0.796875 0
0.403125 0.789844 0
0.26875 0.782813 0
0.275 1.04375 0
0.1375 1.03437 0
0 1.025 0
0.271875 0.913281 0
0.135938 0.905078 0
0 0.896875 0
0.26875 0.782813 0
0.134375 0.775781 0
0 0.76875 0
0.5375 0.796875 0
0.403125 0.789844 0
0.26875 0.782813 0
0.53125 0.664062 0
0.398438 0.658203 0
0.265625 0.652344 0
0.525 0.53125 0
0.39375 0.526563 0
0.2625 0.521875 0
0.26875 0.782813 0
0.134375 0.775781 0
0 0.76875 0
0.265625 0.652344 0
0.132812 0.646484 0
0 0.640625 0
0.2625 0.521875 0
0.13125 0.517187 0
0 0.5125 0
1.05 0.55 0
0.91875 0.545313 0
0.7875 0.540625 0
1.0375 0.4125 0
0.907812 0.408984 0
0.778125 0.405469 0
1.025 0.275 0
0.896875 0.272656 0
0.76875 0.270313 0
0.7875 0.540625 0
0.65625 0.535937 0
0.525 0.53125 0
0.778125 0.405469 0
0.648438 0.401953 0
0.51875 0.398438 0
0.76875 0.270313 0
0.640625 0.267969 0
0.5125 0.265625 0
1.025 0.275 0
0.896875 0.272656 0
0.76875 0.270313 0
1.0125 0.1375 0
0.885937 0.136328 0
0.759375 0.135156 0
1 0 0
0.875 0 0
0.75 0 0
0.76875 0.270313 0
0.640625 0.267969 0
0.5125 0.265625 0
0.759375 0.135156 0
0.632812 0.133984 0
0.50625 0.132812 0
0.75 0 0
0.625 0 0
0.5 0 0
0.525 0.53125 0
0.39375 0.526563 0
0.2625 0.521875 0
0.51875 0.398438 0
0.389062 0.394922 0
0.259375 0.391406 0
0.5125 0.265625 0
0.384375 0.263281 0
0.25625 0.260937 0
0.2625 0.521875 0
0.13125 0.517187 0
0 0.5125 0
0.259375 0.391406 0
0.129688 0.387891 0
0 0.384375 0
0.25625 0.260937 0
0.128125 0.258594 0
0 0.25625 0
0.5125 0.265625 0
0.384375 0.263281 0
0.25625 0.260937 0
0.50625 0.132812 0
0.379687 0.131641 0
0.253125 0.130469 0
0.5 0 0
0.375 0 0
0.25 0 0
0.25625 0.260937 0
0.128125 0.258594 0
0 0.25625 0
0.253125 0.130469 0
0.126562 0.129297 0
0 0.128125 0
0.25 0 0
0.125 0 0
0 0 0
2 1 0
1.8875 1.0125 0
1.775 1.025 0
2 0.875 0
1.88594 0.885938 0
1.77188 0.896875 0
2 0.75 0
1.88437 0.759375 0
1.76875 0.76875 0
1.775 1.025 0
1.6625 1.0375 0
1.55 1.05 0
1.77188 0.896875 0
1.65781 0.907813 0
1.54375 0.91875 0
1.76875 0.76875 0
1.65313 0.778125 0
1.5375 0.7875 0
2 0.75 0
1.88437 0.759375 0
1.76875 0.76875 0
2 0.625 0
1.88281 0.632812 0
1.76562 0.640625 0
2 0.5 0
1.88125 0.50625 0
1.7625 0.5125 0
1.76875 0.76875 0
1.65313 0.778125 0
1.5375 0.7875 0
1.76562 0.640625 0
1.64844 0.648438 0
1.53125 0.65625 0
1.7625 0.5125 0
1.64375 0.51875 0
1.525 0.525 0
1.55 1.05 0
1.4375 1.0625 0
1.325 1.075 0
1.54375 0.91875 0
1.42969 0.929688 0
1.31563 0.940625 0
1.5375 0.7875 0
1.42188 0.796875 0
1.30625 0.80625 0
1.325 1.075 0
1.2125 1.0875 0
1.1 1.1 0
1.31563 0.940625 0
1.20156 0.951563 0
1.0875 0.9625 0
1.30625 0.80625 0
1.19063 0.815625 0
1.075 0.825 0
1.5375 0.7875 0
1.42188 0.796875 0
1.30625 0.80625 0
1.53125 0.65625 0
1.41406 0.664062 0
1.29688 0.671875 0
1.525 0.525 0
1.40625 0.53125 0
1.2875 0.5375 0
1.30625 0.80625 0
1.19063 0.815625 0
1.075 0.825 0
1.29688 0.671875 0
1.17969 0.679688 0
1.0625 0.6875 0
1.2875 0.5375 0
1.16875 0.54375 0
1.05 0.55 0
2 0.5 0
1.88125 0.50625 0
1.7625 0.5125 0
2 0.375 0
1.87969 0.379687 0
1.75938 0.384375 0
2 0.25 0
1.87813 0.253125 0
1.75625 0.25625 0
1.7625 0.5125 0
1.64375 0.51875 0
1.525 0.525 0
1.75938 0.384375 0
1.63906 0.389063 0
1.51875 0.39375 0
1.75625 0.25625 0
1.63438 0.259375 0
1.5125 0.2625 0
2 0.25 0
1.87813 0.253125 0
1.75625 0.25625 0
2 0.125 0
1.87656 0.126562 0
1.75313 0.128125 0
2 0 0
1.875 0 0
1.75 0 0
1.75625 0.25625 0
1.63438 0.259375 0
1.5125 0.2625 0
1.75313 0.128125 0
1.62969 0.129688 0
1.50625 0.13125 0
1.75 0 0
1.625 0 0
1.5 0 0
1.525 0.525 0
1.40625 0.53125 0
1.2875 0.5375 0
1.51875 0.39375 0
1.39844 0.398438 0
1.27813 0.403125 0
1.5125 0.2625 0
1.39062 0.265625 0
1.26875 0.26875 0
1.2875 0.5375 0
1.16875 0.54375 0
1.05 0.55 0
1.27813 0.403125 0
1.15781 0.407813 0
1.0375 0.4125 0
1.26875 0.26875 0
1.14688 0.271875 0
1.025 0.275 0
1.5125 0.2625 0
1.39062 0.265625 0
1.26875 0.26875 0
1.50625 0.13125 0
1.38281 0.132812 0
1.25937 0.134375 0
1.5 0 0
1.375 0 0
1.25 0 0
1.26875 0.26875 0
1.14688 0.271875 0
1.025 0.275 0
1.25937 0.134375 0
1.13594 0.135938 0
1.0125 0.1375 0
1.25 0 0
1.125 0 0
1 0 0
1 2 0
0.875 2.00625 0
0.75 2.0125 0
1.0125 1.8875 0
0.885938 1.8918 0
0.759375 1.89609 0
1.025 1.775 0
0.896875 1.77734 0
0.76875 1.77969 0
0.75 2.0125 0
0.625 2.01875 0
0.5 2.025 0
0.759375 1.89609 0
0.632812 1.90039 0
0.50625 1.90469 0
0.76875 1.77969 0
0.640625 1.78203 0
0.5125 1.78437 0
1.025 1.775 0
0.896875 1.77734 0
0.76875 1.77969 0
1.0375 1.6625 0
0.907813 1.66289 0
0.778125 1.66328 0
1.05 1.55 0
0.91875 1.54844 0
0.7875 1.54688 0
0.76875 1.77969 0
0.640625 1.78203 0
0.5125 1.78437 0
0.778125 1.66328 0
0.648438 1.66367 0
0.51875 1.66406 0
0.7875 1.54688 0
0.65625 1.54531 0
0.525 1.54375 0
0.5 2.025 0
0.375 2.03125 0
0.25 2.0375 0
0.50625 1.90469 0
0.379687 1.90898 0
0.253125 1.91328 0
0.5125 1.78437 0
0.384375 1.78672 0
0.25625 1.78906 0
0.25 2.0375 0
0.125 2.04375 0
0 2.05 0
0.253125 1.91328 0
0.126562 1.91758 0
0 1.92187 0
0.25625 1.78906 0
0.128125 1.79141 0
0 1.79375 0
0.5125 1.78437 0
0.384375 1.78672 0
0.25625 1.78906 0
0.51875 1.66406 0
0.389062 1.66445 0
0.259375 1.66484 0
0.525 1.54375 0
0.39375 1.54219 0
0.2625 1.54062 0
0.25625 1.78906 0
0.128125 1.79141 0
0 1.79375 0
0.259375 1.66484 0
0.129688 1.66523 0
0 1.66562 0
0.2625 1.54062 0
0.13125 1.53906 0
0 1.5375 0
1.05 1.55 0
0.91875 1.54844 0
0.7875 1.54688 0
1.0625 1.4375 0
0.929688 1.43398 0
0.796875 1.43047 0
1.075 1.325 0
0.940625 1.31953 0
0.80625 1.31406 0
0.7875 1.54688 0
0.65625 1.54531 0
0.525 1.54375 0
0.796875 1.43047 0
0.664062 1.42695 0
0.53125 1.42344 0
0.80625 1.31406 0
0.671875 1.30859 0
0.5375 1.30312 0
1.075 1.325 0
0.940625 1.31953 0
0.80625 1.31406 0
1.0875 1.2125 0
0.951563 1.20508 0
0.815625 1.19766 0
1.1 1.1 0
0.9625 1.09063 0
0.825 1.08125 0
0.80625 1.31406 0
0.671875 1.30859 0
0.5375 1.30312 0
0.815625 1.19766 0
0.679688 1.19023 0
0.54375 1.18281 0
0.825 1.08125 0
0.6875 1.07187 0
0.55 1.0625 0
0.525 1.54375 0
0.39375 1.54219 0
0.2625 1.54062 0
0.53125 1.42344 0
0.398438 1.41992 0
0.265625 1.41641 0
0.5375 1.30312 0
0.403125 1.29766 0
0.26875 1.29219 0
0.2625 1.54062 0
0.13125 1.53906 0
0 1.5375 0
0.265625 1.41641 0
0.132812 1.41289 0
0 1.40937 0
0.26875 1.29219 0
0.134375 1.28672 0
0 1.28125 0
0.5375 1.30312 0
0.403125 1.29766 0
0.26875 1.29219 0
0.54375 1.18281 0
0.407813 1.17539 0
0.271875 1.16797 0
0.55 1.0625 0
0.4125 1.05313 0
0.275 1.04375 0
0.26875 1.29219 0
0.134375 1.28672 0
0 1.28125 0
0.271875 1.16797 0
0.135938 1.16055 0
0 1.15312 0
0.275 1.04375 0
0.1375 1.03437 0
0 1.025 0
2.9 1.1 0
2.7875 1.0875 0
2.675 1.075 0
2.9125 0.9625 0
2.79844 0.951563 0
2.68438 0.940625 0
2.925 0.825 0
2.80938 0.815625 0
2.69375 0.80625 0
2.675 1.075 0
2.5625 1.0625 0
2.45 1.05 0
2.68438 0.940625 0
2.57031 0.929688 0
2.45625 0.91875 0
2.69375 0.80625 0
2.57812 0.796875 0
2.4625 0.7875 0
2.925 0.825 0
2.80938 0.815625 0
2.69375 0.80625 0
2.9375 0.6875 0
2.82031 0.679688 0
2.70312 0.671875 0
2.95 0.55 0
2.83125 0.54375 0
2.7125 0.5375 0
2.69375 0.80625 0
2.57812 0.796875 0
2.4625 0.7875 0
2.70312 0.671875 0
2.58594 0.664062 0
2.46875 0.65625 0
2.7125 0.5375 0
2.59375 0.53125 0
2.475 0.525 0
2.45 1.05 0
2.3375 1.0375 0
2.225 1.025 0
2.45625 0.91875 0
2.34219 0.907813 0
2.22813 0.896875 0
2.4625 0.7875 0
2.34688 0.778125 0
2.23125 0.76875 0
2.225 1.025 0
2.1125 1.0125 0
2 1 0
2.22813 0.896875 0
2.11406 0.885938 0
2 0.875 0
2.23125 0.76875 0
2.11563 0.759375 0
2 0.75 0
2.4625 0.7875 0
2.34688 0.778125 0
2.23125 0.76875 0
2.46875 0.65625 0
2.35156 0.648438 0
2.23438 0.640625 0
2.475 0.525 0
2.35625 0.51875 0
2.2375 0.5125 0
2.23125 0.76875 0
2.11563 0.759375 0
2 0.75 0
2.23438 0.640625 0
2.11719 0.632812 0
2 0.625 0
2.2375 0.5125 0
2.11875 0.50625 0
2 0.5 0
2.95 0.55 0
2.83125 0.54375 0
2.7125 0.5375 0
2.9625 0.4125 0
2.84219 0.407813 0
2.72188 0.403125 0
2.975 0.275 0
2.85313 0.271875 0
2.73125 0.26875 0
2.7125 0.5375 0
2.59375 0.53125 0
2.475 0.525 0
2.72188 0.403125 0
2.60156 0.398438 0
2.48125 0.39375 0
2.73125 0.26875 0
2.60938 0.265625 0
2.4875 0.2625 0
2.975 0.275 0
2.85313 0.271875 0
2.73125 0.26875 0
2.9875 0.1375 0
2.86406 0.135938 0
2.74063 0.134375 0
3 0 0
2.875 0 0
2.75 0 0
2.73125 0.26875 0
2.60938 0.265625 0
2.4875 0.2625 0
2.74063 0.134375 0
2.61719 0.132812 0
2.49375 0.13125 0
2.75 0 0
2.625 0 0
2.5 0 0
2.475 0.525 0
2.35625 0.51875 0
2.2375 0.5125 0
2.48125 0.39375 0
2.36094 0.389063 0
2.24062 0.384375 0
2.4875 0.2625 0
2.36562 0.259375 0
2.24375 0.25625 0
2.2375 0.5125 0
2.11875 0.50625 0
2 0.5 0
2.24062 0.384375 0
2.12031 0.379687 0
2 0.375 0
2.24375 0.25625 0
2.12188 0.253125 0
2 0.25 0
2.4875 0.2625 0
2.36562 0.259375 0
2.24375 0.25625 0
2.49375 0.13125 0
2.37031 0.129688 0
2.24688 0.128125 0
2.5 0 0
2.375 0 0
2.25 0 0
2.24375 0.25625 0
2.12188 0.253125 0
2 0.25 0
2.24688 0.128125 0
2.12344 0.126562 0
2 0.125 0
2.25 0 0
2.125 0 0
2 0 0
4 1 0
3.8625 1.0125 0
3.725 1.025 0
4 0.875 0
3.86406 0.885938 0
3.72813 0.896875 0
4 0.75 0
3.86563 0.759375 0
3.73125 0.76875 0
3.725 1.025 0
3.5875 1.0375 0
3.45 1.05 0
3.72813 0.896875 0
3.59219 0.907813 0
3.45625 0.91875 0
3.73125 0.76875 0
3.59688 0.778125 0
3.4625 0.7875 0
4 0.75 0
3.86563 0.759375 0
3.73125 0.76875 0
4 0.625 0
[...]
POINT_DATA 8640
VECTORS v double
1.20468 -0.220851 0
1.18858 -0.176691 0
1.17354 -0.136283 0
1.13237 -0.19868 0
1.10783 -0.160822 0
1.09042 -0.129425 0
1.04606 -0.173509 0
1.01905 -0.142159 0
0.994754 -0.114472 0
1.17354 -0.136283 0
1.16437 -0.107319 0
1.1547 -0.0801186 0
1.09042 -0.129425 0
1.07334 -0.101438 0
1.06216 -0.0787122 0
0.994754 -0.114472 0
0.974237 -0.0905756 0
0.957512 -0.0701818 0
1.04606 -0.173509 0
1.01905 -0.142159 0
0.994754 -0.114472 0
0.934597 -0.13587 0
0.903647 -0.112714 0
0.876873 -0.092501 0
0.801552 -0.106298 0
0.771217 -0.0890731 0
0.744327 -0.073556 0
0.994754 -0.114472 0
0.974237 -0.0905756 0
0.957512 -0.0701818 0
0.876873 -0.092501 0
0.854261 -0.0745814 0
0.835452 -0.0585484 0
0.744327 -0.073556 0
0.721411 -0.0594933 0
0.702068 -0.0469387 0
1.1547 -0.0801186 0
1.14784 -0.0596031 0
1.13993 -0.0384324 0
1.06216 -0.0787122 0
1.0498 -0.0579896 0
1.04238 -0.0390343 0
0.957512 -0.0701818 0
0.943002 -0.0515288 0
0.932848 -0.0345574 0
1.13993 -0.0384324 0
1.13298 -0.0200664 0
1.125 0 0
1.04238 -0.0390343 0
1.03188 -0.0195548 0
1.02539 0 0
0.932848 -0.0345574 0
0.921218 -0.0172894 0
0.914062 0 0
0.957512 -0.0701818 0
0.943002 -0.0515288 0
0.932848 -0.0345574 0
0.835452 -0.0585484 0
0.820098 -0.0433162 0
0.808763 -0.029561 0
0.702068 -0.0469387 0
0.685956 -0.0351204 0
0.673782 -0.0242483 0
0.932848 -0.0345574 0
0.921218 -0.0172894 0
0.914062 0 0
0.808763 -0.029561 0
0.798032 -0.0154058 0
0.791016 0 0
0.673782 -0.0242483 0
0.663047 -0.0127251 0
0.65625 0 0
0.801552 -0.106298 0
0.771217 -0.0890731 0
0.744327 -0.073556 0
0.652312 -0.0709964 0
0.621824 -0.0595698 0
0.594754 -0.0491841 0
0.480029 -0.0421985 0
0.452131 -0.0356995 0
0.427582 -0.0298116 0
0.744327 -0.073556 0
0.721411 -0.0594933 0
0.702068 -0.0469387 0
0.594754 -0.0491841 0
0.571976 -0.0398334 0
0.55277 -0.0316244 0
0.427582 -0.0298116 0
0.406966 -0.0244828 0
0.389745 -0.0198356 0
0.480029 -0.0421985 0
0.452131 -0.0356995 0
0.427582 -0.0298116 0
0.276715 -0.0123077 0
0.255682 -0.0102148 0
0.237778 -0.00845291 0
0 0 0
0 0 0
0 0 0
0.427582 -0.0298116 0
0.406966 -0.0244828 0
0.389745 -0.0198356 0
0.237778 -0.00845291 0
0.222333 -0.00686256 0
0.209724 -0.0055827 0
0 0 0
0 0 0
0 0 0
0.702068 -0.0469387 0
0.685956 -0.0351204 0
0.673782 -0.0242483 0
0.55277 -0.0316244 0
0.536994 -0.0238389 0
0.525081 -0.0165244 0
0.389745 -0.0198356 0
0.375573 -0.015369 0
0.364947 -0.0112175 0
0.673782 -0.0242483 0
0.663047 -0.0127251 0
0.65625 0 0
0.525081 -0.0165244 0
0.515375 -0.00853568 0
0.509766 0 0
0.364947 -0.0112175 0
0.356365 -0.00643156 0
0.351562 0 0
0.389745 -0.0198356 0
0.375573 -0.015369 0
0.364947 -0.0112175 0
0.209724 -0.0055827 0
0.19899 -0.00419912 0
0.191219 -0.00301088 0
0 0 0
0 0 0
0 0 0
0.364947 -0.0112175 0
0.356365 -0.00643156 0
0.351562 0 0
0.191219 -0.00301088 0
0.184733 -0.0015448 0
0.181641 0 0
0 0 0
0 0 0
0 0 0
1.61978 -0.385521 0
1.54104 -0.413144 0
1.47629 -0.419994 0
1.47809 -0.308553 0
1.42054 -0.328953 0
1.35866 -0.337078 0
1.34843 -0.247153 0
1.30413 -0.268578 0
1.25724 -0.279206 0
1.47629 -0.419994 0
1.39949 -0.404106 0
1.33822 -0.377097 0
1.35866 -0.337078 0
1.30262 -0.331863 0
1.24778 -0.316833 0
1.25724 -0.279206 0
1.21243 -0.278158 0
1.16598 -0.266999 0
1.34843 -0.247153 0
1.30413 -0.268578 0
1.25724 -0.279206 0
1.23272 -0.193052 0
1.19048 -0.204027 0
1.146 -0.208884 0
1.07634 -0.135631 0
1.03599 -0.145715 0
0.993634 -0.151512 0
1.25724 -0.279206 0
1.21243 -0.278158 0
1.16598 -0.266999 0
1.146 -0.208884 0
1.1014 -0.206967 0
1.05687 -0.199218 0
0.993634 -0.151512 0
0.954433 -0.153044 0
0.915012 -0.149838 0
1.33822 -0.377097 0
1.28544 -0.341486 0
1.24918 -0.300905 0
1.24778 -0.316833 0
1.20832 -0.291569 0
1.17319 -0.262576 0
1.16598 -0.266999 0
1.12952 -0.248168 0
1.09448 -0.224653 0
1.24918 -0.300905 0
1.22192 -0.261336 0
1.20468 -0.220851 0
1.17319 -0.262576 0
1.14967 -0.229876 0
1.13237 -0.19868 0
1.09448 -0.224653 0
1.06911 -0.19927 0
1.04606 -0.173509 0
1.16598 -0.266999 0
1.12952 -0.248168 0
1.09448 -0.224653 0
1.05687 -0.199218 0
1.01985 -0.186792 0
0.985251 -0.171349 0
0.915012 -0.149838 0
0.881978 -0.142579 0
0.85046 -0.132333 0
1.09448 -0.224653 0
1.06911 -0.19927 0
1.04606 -0.173509 0
0.985251 -0.171349 0
0.958237 -0.154156 0
0.934597 -0.13587 0
0.85046 -0.132333 0
0.824795 -0.119954 0
0.801552 -0.106298 0
1.07634 -0.135631 0
1.03599 -0.145715 0
0.993634 -0.151512 0
0.92394 -0.0961923 0
0.886813 -0.102663 0
0.847276 -0.105917 0
0.74856 -0.0504564 0
0.71192 -0.0551273 0
0.672518 -0.0578612 0
0.993634 -0.151512 0
0.954433 -0.153044 0
0.915012 -0.149838 0
0.847276 -0.105917 0
0.809631 -0.10577 0
0.770921 -0.102375 0
0.672518 -0.0578612 0
0.635216 -0.0587105 0
0.597034 -0.0576467 0
0.74856 -0.0504564 0
0.71192 -0.0551273 0
0.672518 -0.0578612 0
0.474037 -0.0155842 0
0.450477 -0.0172857 0
0.422184 -0.0182343 0
0 0 0
0 0 0
0 0 0
0.672518 -0.0578612 0
0.635216 -0.0587105 0
0.597034 -0.0576467 0
0.422184 -0.0182343 0
0.39591 -0.0185255 0
0.367146 -0.017968 0
0 0 0
0 0 0
0 0 0
0.915012 -0.149838 0
0.881978 -0.142579 0
0.85046 -0.132333 0
0.770921 -0.102375 0
0.73724 -0.0965026 0
0.704539 -0.0887915 0
0.597034 -0.0576467 0
0.563747 -0.0551087 0
0.531571 -0.0514767 0
0.85046 -0.132333 0
0.824795 -0.119954 0
0.801552 -0.106298 0
0.704539 -0.0887915 0
0.677216 -0.0802638 0
0.652312 -0.0709964 0
0.531571 -0.0514767 0
0.504619 -0.0471852 0
0.480029 -0.0421985 0
0.597034 -0.0576467 0
0.563747 -0.0551087 0
0.531571 -0.0514767 0
0.367146 -0.017968 0
0.342127 -0.0170151 0
0.317301 -0.0155482 0
0 0 0
0 0 0
0 0 0
0.531571 -0.0514767 0
0.504619 -0.0471852 0
0.480029 -0.0421985 0
0.317301 -0.0155482 0
0.296054 -0.0140635 0
0.276715 -0.0123077 0
0 0 0
0 0 0
0 0 0
1.25206 0.082775 0
1.32369 0.0737556 0
1.38018 0.0618099 0
1.25452 0.0110769 0
1.32084 0.0181586 0
1.37697 0.0217087 0
1.23739 -0.0568629 0
1.30239 -0.0336809 0
1.35733 -0.0181273 0
1.38018 0.0618099 0
1.42096 0.0507049 0
1.45114 0.0386108 0
1.37697 0.0217087 0
1.41562 0.0197112 0
1.44652 0.0162366 0
1.35733 -0.0181273 0
1.39577 -0.0106881 0
1.42662 -0.00638507 0
1.23739 -0.0568629 0
1.30239 -0.0336809 0
1.35733 -0.0181273 0
1.2517 -0.131093 0
1.30343 -0.09001 0
1.34853 -0.0605512 0
1.25685 -0.167675 0
1.29348 -0.121372 0
1.32718 -0.0862212 0
1.35733 -0.0181273 0
1.39577 -0.0106881 0
1.42662 -0.00638507 0
1.34853 -0.0605512 0
1.37998 -0.0432951 0
1.40642 -0.0306855 0
1.32718 -0.0862212 0
1.35154 -0.0640012 0
1.37323 -0.0460679 0
1.45114 0.0386108 0
1.47342 0.0279929 0
1.48732 0.0173403 0
1.44652 0.0162366 0
1.46764 0.0113984 0
1.48215 0.00696943 0
1.42662 -0.00638507 0
1.44842 -0.00459049 0
1.46383 -0.00321363 0
1.48732 0.0173403 0
1.49741 0.00838103 0
1.5 0 0
1.48215 0.00696943 0
1.49105 0.00325361 0
1.49414 0 0
1.46383 -0.00321363 0
1.4732 -0.00182421 0
1.47656 0 0
1.42662 -0.00638507 0
1.44842 -0.00459049 0
1.46383 -0.00321363 0
1.40642 -0.0306855 0
1.42431 -0.022479 0
1.43781 -0.0149923 0
1.37323 -0.0460679 0
1.38753 -0.0333841 0
1.39925 -0.0216226 0
1.46383 -0.00321363 0
1.4732 -0.00182421 0
1.47656 0 0
1.43781 -0.0149923 0
1.44457 -0.00795467 0
1.44727 0 0
1.39925 -0.0216226 0
1.40414 -0.0112474 0
1.40625 0 0
1.25685 -0.167675 0
1.29348 -0.121372 0
1.32718 -0.0862212 0
1.25491 -0.211451 0
1.28016 -0.15871 0
1.30159 -0.11666 0
1.25534 -0.222937 0
1.26334 -0.170561 0
1.27058 -0.127769 0
1.32718 -0.0862212 0
1.35154 -0.0640012 0
1.37323 -0.0460679 0
1.30159 -0.11666 0
1.31902 -0.0889672 0
1.33352 -0.0650731 0
1.27058 -0.127769 0
1.27798 -0.0979818 0
1.28475 -0.0720033 0
1.25534 -0.222937 0
1.26334 -0.170561 0
1.27058 -0.127769 0
1.22902 -0.22853 0
1.22963 -0.182678 0
1.22324 -0.138393 0
1.20468 -0.220851 0
1.18858 -0.176691 0
1.17354 -0.136283 0
1.27058 -0.127769 0
1.27798 -0.0979818 0
1.28475 -0.0720033 0
1.22324 -0.138393 0
1.22538 -0.109316 0
1.22286 -0.0806268 0
1.17354 -0.136283 0
1.16437 -0.107319 0
1.1547 -0.0801186 0
1.37323 -0.0460679 0
1.38753 -0.0333841 0
1.39925 -0.0216226 0
1.33352 -0.0650731 0
1.34335 -0.0477393 0
1.3507 -0.0313939 0
1.28475 -0.0720033 0
1.28837 -0.0526642 0
1.29127 -0.0340191 0
1.39925 -0.0216226 0
1.40414 -0.0112474 0
1.40625 0 0
1.3507 -0.0313939 0
1.35328 -0.0168953 0
1.35352 0 0
1.29127 -0.0340191 0
1.29054 -0.0176775 0
1.28906 0 0
1.28475 -0.0720033 0
1.28837 -0.0526642 0
1.29127 -0.0340191 0
1.22286 -0.0806268 0
1.22319 -0.0606518 0
1.22019 -0.039076 0
1.1547 -0.0801186 0
1.14784 -0.0596031 0
1.13993 -0.0384324 0
1.29127 -0.0340191 0
1.29054 -0.0176775 0
1.28906 0 0
1.22019 -0.039076 0
1.21775 -0.0210507 0
1.21289 0 0
1.13993 -0.0384324 0
1.13298 -0.0200664 0
1.125 0 0
1.70055 0.0053113 0
1.7384 -0.0306192 0
1.80989 -0.0678434 0
1.70307 -0.0699575 0
1.72136 -0.0708115 0
1.72757 -0.0889652 0
1.63173 -0.0503969 0
1.60341 -0.0546709 0
1.59191 -0.0685185 0
1.80989 -0.0678434 0
1.81109 -0.128897 0
1.83916 -0.183148 0
1.72757 -0.0889652 0
1.72532 -0.121257 0
1.70854 -0.164742 0
1.59191 -0.0685185 0
1.56324 -0.0955249 0
1.54301 -0.128508 0
1.63173 -0.0503969 0
1.60341 -0.0546709 0
1.59191 -0.0685185 0
1.4895 -0.0484695 0
1.46904 -0.062539 0
1.45359 -0.0791879 0
1.37333 -0.0335407 0
1.35025 -0.0442909 0
1.32864 -0.0558052 0
1.59191 -0.0685185 0
1.56324 -0.0955249 0
1.54301 -0.128508 0
1.45359 -0.0791879 0
1.43093 -0.0991891 0
1.40849 -0.120683 0
1.32864 -0.0558052 0
1.29779 -0.0694667 0
1.26636 -0.084148 0
1.83916 -0.183148 0
1.80295 -0.249977 0
1.77818 -0.306972 0
1.70854 -0.164742 0
1.66874 -0.212408 0
1.6121 -0.252904 0
1.54301 -0.128508 0
1.50151 -0.165105 0
1.46347 -0.199013 0
1.77818 -0.306972 0
1.68513 -0.34697 0
1.61978 -0.385521 0
1.6121 -0.252904 0
1.55087 -0.286405 0
1.47809 -0.308553 0
1.46347 -0.199013 0
1.40611 -0.225372 0
1.34843 -0.247153 0
1.54301 -0.128508 0
1.50151 -0.165105 0
1.46347 -0.199013 0
1.40849 -0.120683 0
1.37303 -0.143075 0
1.33418 -0.163686 0
1.26636 -0.084148 0
1.22536 -0.100162 0
1.18201 -0.115005 0
1.46347 -0.199013 0
1.40611 -0.225372 0
1.34843 -0.247153 0
1.33418 -0.163686 0
1.28511 -0.181298 0
1.23272 -0.193052 0
1.18201 -0.115005 0
1.13144 -0.127185 0
1.07634 -0.135631 0
1.37333 -0.0335407 0
1.35025 -0.0442909 0
1.32864 -0.0558052 0
1.21062 -0.0106966 0
1.18548 -0.0213512 0
1.16018 -0.0328356 0
0.994 0.00882776 0
0.976854 0.00118695 0
0.958927 -0.00678872 0
1.32864 -0.0558052 0
1.29779 -0.0694667 0
1.26636 -0.084148 0
1.16018 -0.0328356 0
1.12924 -0.045105 0
1.09734 -0.0576417 0
0.958927 -0.00678872 0
0.933312 -0.0153073 0
0.905875 -0.0237995 0
0.994 0.00882776 0
0.976854 0.00118695 0
0.958927 -0.00678872 0
0.608492 0.00422378 0
0.605043 0.00170774 0
0.601129 -0.000674559 0
0 0 0
0 0 0
0 0 0
0.958927 -0.00678872 0
0.933312 -0.0153073 0
0.905875 -0.0237995 0
0.601129 -0.000674559 0
0.589769 -0.00335782 0
0.576654 -0.00599539 0
0 0 0
0 0 0
0 0 0
1.26636 -0.084148 0
1.22536 -0.100162 0
1.18201 -0.115005 0
1.09734 -0.0576417 0
1.05875 -0.0699954 0
1.01756 -0.0807753 0
0.905875 -0.0237995 0
0.871348 -0.0323229 0
0.834339 -0.0398529 0
1.18201 -0.115005 0
1.13144 -0.127185 0
1.07634 -0.135631 0
1.01756 -0.0807753 0
0.972032 -0.0896401 0
0.92394 -0.0961923 0
0.834339 -0.0398529 0
0.793047 -0.0461675 0
0.74856 -0.0504564 0
0.905875 -0.0237995 0
0.871348 -0.0323229 0
0.834339 -0.0398529 0
0.576654 -0.00599539 0
0.55694 -0.00872575 0
0.53346 -0.0114207 0
0 0 0
0 0 0
0 0 0
0.834339 -0.0398529 0
0.793047 -0.0461675 0
0.74856 -0.0504564 0
0.53346 -0.0114207 0
0.506144 -0.013762 0
0.474037 -0.0155842 0
0 0 0
0 0 0
0 0 0
2.07842 0.242639 0
2.07004 0.115066 0
2.02239 -0.008059 0
1.8819 0.289305 0
1.91358 0.192908 0
1.90932 0.0970356 0
1.61853 0.231504 0
1.66857 0.17194 0
1.69095 0.101323 0
2.02239 -0.008059 0
1.92408 -0.103134 0
1.8273 -0.145139 0
1.90932 0.0970356 0
1.86629 0.010503 0
1.79569 -0.0483207 0
1.69095 0.101323 0
1.70302 0.0348911 0
1.69574 -0.0188898 0
1.61853 0.231504 0
1.66857 0.17194 0
1.69095 0.101323 0
1.52431 0.208851 0
1.54783 0.156162 0
1.56981 0.109181 0
1.29595 0.165652 0
1.35026 0.136717 0
1.37981 0.104107 0
1.69095 0.101323 0
1.70302 0.0348911 0
1.69574 -0.0188898 0
1.56981 0.109181 0
1.56502 0.0648052 0
1.55719 0.0287661 0
1.37981 0.104107 0
1.39482 0.0698107 0
1.39708 0.0387182 0
1.8273 -0.145139 0
1.7543 -0.126202 0
1.68901 -0.0747917 0
1.79569 -0.0483207 0
1.74275 -0.0766281 0
1.69121 -0.0859032 0
1.69574 -0.0188898 0
1.68167 -0.0466891 0
1.65935 -0.057312 0
1.68901 -0.0747917 0
1.67402 -0.0267208 0
1.70055 0.0053113 0
1.69121 -0.0859032 0
1.69399 -0.0758701 0
1.70307 -0.0699575 0
1.65935 -0.057312 0
1.64072 -0.0535203 0
1.63173 -0.0503969 0
1.69574 -0.0188898 0
1.68167 -0.0466891 0
1.65935 -0.057312 0
1.55719 0.0287661 0
1.5338 0.000372828 0
1.51318 -0.0196687 0
1.39708 0.0387182 0
1.39567 0.0138971 0
1.38905 -0.00561522 0
1.65935 -0.057312 0
1.64072 -0.0535203 0
1.63173 -0.0503969 0
1.51318 -0.0196687 0
1.49697 -0.0342498 0
1.4895 -0.0484695 0
1.38905 -0.00561522 0
1.38159 -0.0196166 0
1.37333 -0.0335407 0
1.29595 0.165652 0
1.35026 0.136717 0
1.37981 0.104107 0
1.06899 0.108361 0
1.12966 0.097823 0
1.17765 0.0833918 0
0.741931 0.0600664 0
0.806653 0.0604224 0
0.861861 0.0564209 0
1.37981 0.104107 0
1.39482 0.0698107 0
1.39708 0.0387182 0
1.17765 0.0833918 0
1.20679 0.066283 0
1.22369 0.0476409 0
0.861861 0.0564209 0
0.907482 0.0500898 0
0.943269 0.0411696 0
0.741931 0.0600664 0
0.806653 0.0604224 0
0.861861 0.0564209 0
0.407324 0.00956162 0
0.436234 0.0115937 0
0.469001 0.0124449 0
0 0 0
0 0 0
0 0 0
0.861861 0.0564209 0
0.907482 0.0500898 0
0.943269 0.0411696 0
0.469001 0.0124449 0
0.499339 0.0128922 0
0.529004 0.0120165 0
0 0 0
0 0 0
0 0 0
1.39708 0.0387182 0
1.39567 0.0138971 0
1.38905 -0.00561522 0
1.22369 0.0476409 0
1.22844 0.0311604 0
1.22629 0.0155196 0
0.943269 0.0411696 0
0.96764 0.0327716 0
0.984674 0.0241547 0
1.38905 -0.00561522 0
1.38159 -0.0196166 0
1.37333 -0.0335407 0
1.22629 0.0155196 0
1.2194 0.00267881 0
1.21062 -0.0106966 0
0.984674 0.0241547 0
0.991647 0.0170029 0
0.994 0.00882776 0
0.943269 0.0411696 0
0.96764 0.0327716 0
0.984674 0.0241547 0
0.529004 0.0120165 0
0.553633 0.0106836 0
0.576676 0.00862008 0
0 0 0
0 0 0
0 0 0
0.984674 0.0241547 0
0.991647 0.0170029 0
0.994 0.00882776 0
0.576676 0.00862008 0
0.592937 0.00642875 0
0.608492 0.00422378 0
0 0 0
0 0 0
0 0 0
0.529304 -1.32241 0
0.698189 -1.25347 0
0.571003 -1.34855 0
0.600259 -1.21788 0
0.638957 -1.22592 0
0.436361 -1.28704 0
0.685944 -1.01497 0
0.58944 -1.12703 0
0.352416 -1.19375 0
0.571003 -1.34855 0
0.629833 -1.55661 0
0.494084 -1.49224 0
0.436361 -1.28704 0
0.405266 -1.43705 0
0.206689 -1.34438 0
0.352416 -1.19375 0
0.26138 -1.26513 0
0.0171723 -1.14356 0
0.685944 -1.01497 0
0.58944 -1.12703 0
0.352416 -1.19375 0
0.904159 -0.717585 0
0.631959 -0.920163 0
0.354337 -1.06225 0
1.19225 -0.341664 0
0.903197 -0.577134 0
0.496721 -0.761764 0
0.352416 -1.19375 0
0.26138 -1.26513 0
0.0171723 -1.14356 0
0.354337 -1.06225 0
0.140778 -1.00543 0
-0.0672114 -0.962003 0
0.496721 -0.761764 0
0.235028 -0.746041 0
-0.0351418 -0.656591 0
0.494084 -1.49224 0
0.364247 -1.27686 0
0.309097 -0.715668 0
0.206689 -1.34438 0
0.0332606 -1.09087 0
-0.0326148 -0.46595 0
0.0171723 -1.14356 0
-0.209206 -0.982521 0
-0.276382 -0.388716 0
0.309097 -0.715668 0
0.121218 -0.31765 0
-0.0797852 0.108879 0
-0.0326148 -0.46595 0
-0.199728 -0.0150273 0
-0.3989 0.364318 0
-0.276382 -0.388716 0
-0.417718 0.116991 0
-0.561332 0.437087 0
0.0171723 -1.14356 0
-0.209206 -0.982521 0
-0.276382 -0.388716 0
-0.0672114 -0.962003 0
-0.314289 -0.759406 0
-0.402659 -0.202202 0
-0.0351418 -0.656591 0
-0.291507 -0.57967 0
-0.348478 -0.170012 0
-0.276382 -0.388716 0
-0.417718 0.116991 0
-0.561332 0.437087 0
-0.402659 -0.202202 0
-0.543987 0.280981 0
-0.615028 0.548696 0
-0.348478 -0.170012 0
-0.469684 0.230461 0
-0.423336 0.450993 0
1.19225 -0.341664 0
0.903197 -0.577134 0
0.496721 -0.761764 0
1.5405 -0.073981 0
1.24996 -0.357728 0
0.931217 -0.511781 0
1.95506 0.203217 0
1.7005 -0.0817715 0
1.48764 -0.1995 0
0.496721 -0.761764 0
0.235028 -0.746041 0
-0.0351418 -0.656591 0
0.931217 -0.511781 0
0.620653 -0.535439 0
0.256251 -0.545998 0
1.48764 -0.1995 0
1.18075 -0.285804 0
0.887862 -0.276936 0
1.95506 0.203217 0
1.7005 -0.0817715 0
1.48764 -0.1995 0
1.96751 0.288143 0
1.9083 0.113372 0
1.71574 -0.0599357 0
2.07842 0.242639 0
2.07004 0.115066 0
2.02239 -0.008059 0
1.48764 -0.1995 0
1.18075 -0.285804 0
0.887862 -0.276936 0
1.71574 -0.0599357 0
1.56115 -0.179764 0
1.32529 -0.222803 0
2.02239 -0.008059 0
1.92408 -0.103134 0
1.8273 -0.145139 0
-0.0351418 -0.656591 0
-0.291507 -0.57967 0
-0.348478 -0.170012 0
0.256251 -0.545998 0
0.0998169 -0.452784 0
0.0275479 0.00372022 0
0.887862 -0.276936 0
0.746844 -0.0921767 0
0.549322 0.0852467 0
-0.348478 -0.170012 0
-0.469684 0.230461 0
-0.423336 0.450993 0
0.0275479 0.00372022 0
-0.0427261 0.259014 0
0.110144 0.430864 0
0.549322 0.0852467 0
0.641928 0.202849 0
0.734227 0.245947 0
0.887862 -0.276936 0
0.746844 -0.0921767 0
0.549322 0.0852467 0
1.32529 -0.222803 0
1.26833 -0.181632 0
1.20228 -0.110664 0
1.8273 -0.145139 0
1.7543 -0.126202 0
1.68901 -0.0747917 0
0.549322 0.0852467 0
0.641928 0.202849 0
0.734227 0.245947 0
1.20228 -0.110664 0
1.31941 0.00915361 0
1.41886 0.081926 0
1.68901 -0.0747917 0
1.67402 -0.0267208 0
1.70055 0.0053113 0
0.949813 -0.27916 0
1.12401 -0.385937 0
1.2263 -0.494346 0
1.03998 -0.362099 0
1.17967 -0.502016 0
1.32706 -0.630569 0
1.06742 -0.455377 0
1.14098 -0.61918 0
1.33842 -0.743676 0
1.2263 -0.494346 0
1.44845 -0.564572 0
1.60245 -0.619342 0
1.32706 -0.630569 0
1.46912 -0.709836 0
1.57364 -0.763593 0
1.33842 -0.743676 0
1.38716 -0.833976 0
1.55297 -0.906571 0
1.06742 -0.455377 0
1.14098 -0.61918 0
1.33842 -0.743676 0
0.927667 -0.619461 0
1.04573 -0.768246 0
1.23217 -0.869376 0
0.784859 -0.798126 0
0.958671 -0.873513 0
1.13516 -0.974983 0
1.33842 -0.743676 0
1.38716 -0.833976 0
1.55297 -0.906571 0
1.23217 -0.869376 0
1.339 -0.966284 0
1.56157 -1.09589 0
1.13516 -0.974983 0
1.31427 -1.10725 0
1.52218 -1.32827 0
1.60245 -0.619342 0
1.7886 -0.608768 0
1.85966 -0.542988 0
1.57364 -0.763593 0
1.70757 -0.76011 0
1.86981 -0.729113 0
1.55297 -0.906571 0
1.78232 -0.933591 0
2.15 -0.892344 0
1.85966 -0.542988 0
1.92982 -0.458538 0
1.98365 -0.367956 0
1.86981 -0.729113 0
2.07676 -0.658467 0
2.24149 -0.530134 0
2.15 -0.892344 0
2.26064 -0.718115 0
2.28901 -0.49818 0
1.55297 -0.906571 0
1.78232 -0.933591 0
2.15 -0.892344 0
1.56157 -1.09589 0
1.84795 -1.16066 0
2.05281 -1.03208 0
1.52218 -1.32827 0
1.71154 -1.30734 0
1.73479 -1.05865 0
2.15 -0.892344 0
2.26064 -0.718115 0
2.28901 -0.49818 0
2.05281 -1.03208 0
1.91565 -0.780136 0
1.73165 -0.47205 0
1.73479 -1.05865 0
1.52516 -0.734922 0
1.23059 -0.249295 0
0.784859 -0.798126 0
0.958671 -0.873513 0
1.13516 -0.974983 0
0.658153 -0.993173 0
0.884036 -1.03308 0
1.03166 -1.15164 0
0.596411 -1.15828 0
0.817968 -1.14531 0
0.869601 -1.27705 0
1.13516 -0.974983 0
1.31427 -1.10725 0
1.52218 -1.32827 0
1.03166 -1.15164 0
1.19651 -1.35328 0
1.3178 -1.52562 0
0.869601 -1.27705 0
1.02002 -1.50631 0
1.07699 -1.6261 0
0.596411 -1.15828 0
0.817968 -1.14531 0
0.869601 -1.27705 0
0.533884 -1.26951 0
0.741351 -1.216 0
0.693676 -1.33134 0
0.529304 -1.32241 0
0.698189 -1.25347 0
0.571003 -1.34855 0
0.869601 -1.27705 0
1.02002 -1.50631 0
1.07699 -1.6261 0
0.693676 -1.33134 0
0.823975 -1.57919 0
0.795527 -1.59063 0
0.571003 -1.34855 0
0.629833 -1.55661 0
0.494084 -1.49224 0
1.52218 -1.32827 0
1.71154 -1.30734 0
1.73479 -1.05865 0
1.3178 -1.52562 0
1.39171 -1.34256 0
1.39602 -0.992851 0
1.07699 -1.6261 0
1.0893 -1.36785 0
1.03872 -0.881023 0
1.73479 -1.05865 0
1.52516 -0.734922 0
1.23059 -0.249295 0
1.39602 -0.992851 0
1.17233 -0.54155 0
0.93556 -0.00547517 0
1.03872 -0.881023 0
0.76933 -0.363684 0
0.59673 0.164393 0
1.07699 -1.6261 0
1.0893 -1.36785 0
1.03872 -0.881023 0
0.795527 -1.59063 0
0.721507 -1.28709 0
0.627561 -0.750663 0
0.494084 -1.49224 0
0.364247 -1.27686 0
0.309097 -0.715668 0
1.03872 -0.881023 0
0.76933 -0.363684 0
0.59673 0.164393 0
0.627561 -0.750663 0
0.400187 -0.326559 0
0.237921 0.112731 0
0.309097 -0.715668 0
0.121218 -0.31765 0
-0.0797852 0.108879 0
0 0 0
0 0 0
0 0 0
0.165853 -0.0103155 0
0.189709 -0.0151464 0
0.214494 -0.0195234 0
0.451897 -0.0108723 0