# vtk DataFile Version 3.0
#This file was generated by the deal.II library on 2025/1/4 at 10:06:06
ASCII
DATASET UNSTRUCTURED_GRID

POINTS 8640 double
1.1 1.1 0
0.9625 1.09063 0
0.825 1.08125 0
1.0875 0.9625 0
0.951563 0.954297 0
0.815625 0.946094 0
1.075 0.825 0
0.940625 0.817969 0
0.80625 0.810937 0
0.825 1.08125 0
0.6875 1.07187 0
0.55 1.0625 0
0.815625 0.946094 0
0.679688 0.937891 0
0.54375 0.929688 0
0.80625 0.810937 0
0.671875 0.803906 0
0.5375 0.796875 0
1.075 0.825 0
0.940625 0.817969 0
0.80625 0.810937 0
1.0625 0.6875 0
0.929688 0.681641 0
0.796875 0.675781 0
1.05 0.55 0
0.91875 0.545313 0
0.7875 0.540625 0
0.80625 0.810937 0
0.671875 0.803906 0
0.5375 0.796875 0
0.796875 0.675781 0
0.664062 0.669922 0
0.53125 0.664062 0
0.7875 0.540625 0
0.65625 0.535937 0
0.525 0.53125 0
0.55 1.0625 0
0.4125 1.05313 0
0.275 1.04375 0
0.54375 0.929688 0
0.407813 0.921484 0
0.271875 0.913281 0
0.5375 0.796875 0
0.403125 0.789844 0
0.26875 0.782813 0
0.275 1.04375 0
0.1375 1.03437 0
0 1.025 0
0.271875 0.913281 0
0.135938 0.905078 0
0 0.896875 0
0.26875 0.782813 0
0.134375 0.775781 0
0 0.76875 0
0.5375 0.796875 0
0.403125 0.789844 0
0.26875 0.782813 0
0.53125 0.664062 0
0.398438 0.658203 0
0.265625 0.652344 0
0.525 0.53125 0
0.39375 0.526563 0
0.2625 0.521875 0
0.26875 0.782813 0
0.134375 0.775781 0
0 0.76875 0
0.265625 0.652344 0
0.132812 0.646484 0
0 0.640625 0
0.2625 0.521875 0
0.13125 0.517187 0
0 0.5125 0
1.05 0.55 0
0.91875 0.545313 0
0.7875 0.540625 0
1.0375 0.4125 0
0.907812 0.408984 0
0.778125 0.405469 0
1.025 0.275 0
0.896875 0.272656 0
0.76875 0.270313 0
0.7875 0.540625 0
0.65625 0.535937 0
0.525 0.53125 0
0.778125 0.405469 0
0.648438 0.401953 0
0.51875 0.398438 0
0.76875 0.270313 0
0.640625 0.267969 0
0.5125 0.265625 0
1.025 0.275 0
0.896875 0.272656 0
0.76875 0.270313 0
1.0125 0.1375 0
0.885937 0.136328 0
0.759375 0.135156 0
1 0 0
0.875 0 0
0.75 0 0
0.76875 0.270313 0
0.640625 0.267969 0
0.5125 0.265625 0
0.759375 0.135156 0
0.632812 0.133984 0
0.50625 0.132812 0
0.75 0 0
0.625 0 0
0.5 0 0
0.525 0.53125 0
0.39375 0.526563 0
0.2625 0.521875 0
0.51875 0.398438 0
0.389062 0.394922 0
0.259375 0.391406 0
0.5125 0.265625 0
0.384375 0.263281 0
0.25625 0.260937 0
0.2625 0.521875 0
0.13125 0.517187 0
0 0.5125 0
0.259375 0.391406 0
0.129688 0.387891 0
0 0.384375 0
0.25625 0.260937 0
0.128125 0.258594 0
0 0.25625 0
0.5125 0.265625 0
0.384375 0.263281 0
0.25625 0.260937 0
0.50625 0.132812 0
0.379687 0.131641 0
0.253125 0.130469 0
0.5 0 0
0.375 0 0
0.25 0 0
0.25625 0.260937 0
0.128125 0.258594 0
0 0.25625 0
0.253125 0.130469 0
0.126562 0.129297 0
0 0.128125 0
0.25 0 0
0.125 0 0
0 0 0
2 1 0
1.8875 1.0125 0
1.775 1.025 0
2 0.875 0
1.88594 0.885938 0
1.77188 0.896875 0
2 0.75 0
1.88437 0.759375 0
1.76875 0.76875 0
1.775 1.025 0
1.6625 1.0375 0
1.55 1.05 0
1.77188 0.896875 0
1.65781 0.907813 0
1.54375 0.91875 0
1.76875 0.76875 0
1.65313 0.778125 0
1.5375 0.7875 0
2 0.75 0
1.88437 0.759375 0
1.76875 0.76875 0
2 0.625 0
1.88281 0.632812 0
1.76562 0.640625 0
2 0.5 0
1.88125 0.50625 0
1.7625 0.5125 0
1.76875 0.76875 0
1.65313 0.778125 0
1.5375 0.7875 0
1.76562 0.640625 0
1.64844 0.648438 0
1.53125 0.65625 0
1.7625 0.5125 0
1.64375 0.51875 0
1.525 0.525 0
1.55 1.05 0
1.4375 1.0625 0
1.325 1.075 0
1.54375 0.91875 0
1.42969 0.929688 0
1.31563 0.940625 0
1.5375 0.7875 0
1.42188 0.796875 0
1.30625 0.80625 0
1.325 1.075 0
1.2125 1.0875 0
1.1 1.1 0
1.31563 0.940625 0
1.20156 0.951563 0
1.0875 0.9625 0
1.30625 0.80625 0
1.19063 0.815625 0
1.075 0.825 0
1.5375 0.7875 0
1.42188 0.796875 0
1.30625 0.80625 0
1.53125 0.65625 0
1.41406 0.664062 0
1.29688 0.671875 0
1.525 0.525 0
1.40625 0.53125 0
1.2875 0.5375 0
1.30625 0.80625 0
1.19063 0.815625 0
1.075 0.825 0
1.29688 0.671875 0
1.17969 0.679688 0
1.0625 0.6875 0
1.2875 0.5375 0
1.16875 0.54375 0
1.05 0.55 0
2 0.5 0
1.88125 0.50625 0
1.7625 0.5125 0
2 0.375 0
1.87969 0.379687 0
1.75938 0.384375 0
2 0.25 0
1.87813 0.253125 0
1.75625 0.25625 0
1.7625 0.5125 0
1.64375 0.51875 0
1.525 0.525 0
1.75938 0.384375 0
1.63906 0.389063 0
1.51875 0.39375 0
1.75625 0.25625 0
1.63438 0.259375 0
1.5125 0.2625 0
2 0.25 0
1.87813 0.253125 0
1.75625 0.25625 0
2 0.125 0
1.87656 0.126562 0
1.75313 0.128125 0
2 0 0
1.875 0 0
1.75 0 0
1.75625 0.25625 0
1.63438 0.259375 0
1.5125 0.2625 0
1.75313 0.128125 0
1.62969 0.129688 0
1.50625 0.13125 0
1.75 0 0
1.625 0 0
1.5 0 0
1.525 0.525 0
1.40625 0.53125 0
1.2875 0.5375 0
1.51875 0.39375 0
1.39844 0.398438 0
1.27813 0.403125 0
1.5125 0.2625 0
1.39062 0.265625 0
1.26875 0.26875 0
1.2875 0.5375 0
1.16875 0.54375 0
1.05 0.55 0
1.27813 0.403125 0
1.15781 0.407813 0
1.0375 0.4125 0
1.26875 0.26875 0
1.14688 0.271875 0
1.025 0.275 0
1.5125 0.2625 0
1.39062 0.265625 0
1.26875 0.26875 0
1.50625 0.13125 0
1.38281 0.132812 0
1.25937 0.134375 0
1.5 0 0
1.375 0 0
1.25 0 0
1.26875 0.26875 0
1.14688 0.271875 0
1.025 0.275 0
1.25937 0.134375 0
1.13594 0.135938 0
1.0125 0.1375 0
1.25 0 0
1.125 0 0
1 0 0
1 2 0
0.875 2.00625 0
0.75 2.0125 0
1.0125 1.8875 0
0.885938 1.8918 0
0.759375 1.89609 0
1.025 1.775 0
0.896875 1.77734 0
0.76875 1.77969 0
0.75 2.0125 0
0.625 2.01875 0
0.5 2.025 0
0.759375 1.89609 0
0.632812 1.90039 0
0.50625 1.90469 0
0.76875 1.77969 0
0.640625 1.78203 0
0.5125 1.78437 0
1.025 1.775 0
0.896875 1.77734 0
0.76875 1.77969 0
1.0375 1.6625 0
0.907813 1.66289 0
0.778125 1.66328 0
1.05 1.55 0
0.91875 1.54844 0
0.7875 1.54688 0
0.76875 1.77969 0
0.640625 1.78203 0
0.5125 1.78437 0
0.778125 1.66328 0
0.648438 1.66367 0
0.51875 1.66406 0
0.7875 1.54688 0
0.65625 1.54531 0
0.525 1.54375 0
0.5 2.025 0
0.375 2.03125 0
0.25 2.0375 0
0.50625 1.90469 0
0.379687 1.90898 0
0.253125 1.91328 0
0.5125 1.78437 0
0.384375 1.78672 0
0.25625 1.78906 0
0.25 2.0375 0
0.125 2.04375 0
0 2.05 0
0.253125 1.91328 0
0.126562 1.91758 0
0 1.92187 0
0.25625 1.78906 0
0.128125 1.79141 0
0 1.79375 0
0.5125 1.78437 0
0.384375 1.78672 0
0.25625 1.78906 0
0.51875 1.66406 0
0.389062 1.66445 0
0.259375 1.66484 0
0.525 1.54375 0
0.39375 1.54219 0
0.2625 1.54062 0
0.25625 1.78906 0
0.128125 1.79141 0
0 1.79375 0
0.259375 1.66484 0
0.129688 1.66523 0
0 1.66562 0
0.2625 1.54062 0
0.13125 1.53906 0
0 1.5375 0
1.05 1.55 0
0.91875 1.54844 0
0.7875 1.54688 0
1.0625 1.4375 0
0.929688 1.43398 0
0.796875 1.43047 0
1.075 1.325 0
0.940625 1.31953 0
0.80625 1.31406 0
0.7875 1.54688 0
0.65625 1.54531 0
0.525 1.54375 0
0.796875 1.43047 0
0.664062 1.42695 0
0.53125 1.42344 0
0.80625 1.31406 0
0.671875 1.30859 0
0.5375 1.30312 0
1.075 1.325 0
0.940625 1.31953 0
0.80625 1.31406 0
1.0875 1.2125 0
0.951563 1.20508 0
0.815625 1.19766 0
1.1 1.1 0
0.9625 1.09063 0
0.825 1.08125 0
0.80625 1.31406 0
0.671875 1.30859 0
0.5375 1.30312 0
0.815625 1.19766 0
0.679688 1.19023 0
0.54375 1.18281 0
0.825 1.08125 0
0.6875 1.07187 0
0.55 1.0625 0
0.525 1.54375 0
0.39375 1.54219 0
0.2625 1.54062 0
0.53125 1.42344 0
0.398438 1.41992 0
0.265625 1.41641 0
0.5375 1.30312 0
0.403125 1.29766 0
0.26875 1.29219 0
0.2625 1.54062 0
0.13125 1.53906 0
0 1.5375 0
0.265625 1.41641 0
0.132812 1.41289 0
0 1.40937 0
0.26875 1.29219 0
0.134375 1.28672 0
0 1.28125 0
0.5375 1.30312 0
0.403125 1.29766 0
0.26875 1.29219 0
0.54375 1.18281 0
0.407813 1.17539 0
0.271875 1.16797 0
0.55 1.0625 0
0.4125 1.05313 0
0.275 1.04375 0
0.26875 1.29219 0
0.134375 1.28672 0
0 1.28125 0
0.271875 1.16797 0
0.135938 1.16055 0
0 1.15312 0
0.275 1.04375 0
0.1375 1.03437 0
0 1.025 0
2.9 1.1 0
2.7875 1.0875 0
2.675 1.075 0
2.9125 0.9625 0
2.79844 0.951563 0
2.68438 0.940625 0
2.925 0.825 0
2.80938 0.815625 0
2.69375 0.80625 0
2.675 1.075 0
2.5625 1.0625 0
2.45 1.05 0
2.68438 0.940625 0
2.57031 0.929688 0
2.45625 0.91875 0
2.69375 0.80625 0
2.57812 0.796875 0
2.4625 0.7875 0
2.925 0.825 0
2.80938 0.815625 0
2.69375 0.80625 0
2.9375 0.6875 0
2.82031 0.679688 0
2.70312 0.671875 0
2.95 0.55 0
2.83125 0.54375 0
2.7125 0.5375 0
2.69375 0.80625 0
2.57812 0.796875 0
2.4625 0.7875 0
2.70312 0.671875 0
2.58594 0.664062 0
2.46875 0.65625 0
2.7125 0.5375 0
2.59375 0.53125 0
2.475 0.525 0
2.45 1.05 0
2.3375 1.0375 0
2.225 1.025 0
2.45625 0.91875 0
2.34219 0.907813 0
2.22813 0.896875 0
2.4625 0.7875 0
2.34688 0.778125 0
2.23125 0.76875 0
2.225 1.025 0
2.1125 1.0125 0
2 1 0
2.22813 0.896875 0
2.11406 0.885938 0
2 0.875 0
2.23125 0.76875 0
2.11563 0.759375 0
2 0.75 0
2.4625 0.7875 0
2.34688 0.778125 0
2.23125 0.76875 0
2.46875 0.65625 0
2.35156 0.648438 0
2.23438 0.640625 0
2.475 0.525 0
2.35625 0.51875 0
2.2375 0.5125 0
2.23125 0.76875 0
2.11563 0.759375 0
2 0.75 0
2.23438 0.640625 0
2.11719 0.632812 0
2 0.625 0
2.2375 0.5125 0
2.11875 0.50625 0
2 0.5 0
2.95 0.55 0
2.83125 0.54375 0
2.7125 0.5375 0
2.9625 0.4125 0
2.84219 0.407813 0
2.72188 0.403125 0
2.975 0.275 0
2.85313 0.271875 0
2.73125 0.26875 0
2.7125 0.5375 0
2.59375 0.53125 0
2.475 0.525 0
2.72188 0.403125 0
2.60156 0.398438 0
2.48125 0.39375 0
2.73125 0.26875 0
2.60938 0.265625 0
2.4875 0.2625 0
2.975 0.275 0
2.85313 0.271875 0
2.73125 0.26875 0
2.9875 0.1375 0
2.86406 0.135938 0
2.74063 0.134375 0
3 0 0
2.875 0 0
2.75 0 0
2.73125 0.26875 0
2.60938 0.265625 0
2.4875 0.2625 0
2.74063 0.134375 0
2.61719 0.132812 0
2.49375 0.13125 0
2.75 0 0
2.625 0 0
2.5 0 0
2.475 0.525 0
2.35625 0.51875 0
2.2375 0.5125 0
2.48125 0.39375 0
2.36094 0.389063 0
2.24062 0.384375 0
2.4875 0.2625 0
2.36562 0.259375 0
2.24375 0.25625 0
2.2375 0.5125 0
2.11875 0.50625 0
2 0.5 0
2.24062 0.384375 0
2.12031 0.379687 0
2 0.375 0
2.24375 0.25625 0
2.12188 0.253125 0
2 0.25 0
2.4875 0.2625 0
2.36562 0.259375 0
2.24375 0.25625 0
2.49375 0.13125 0
2.37031 0.129688 0
2.24688 0.128125 0
2.5 0 0
2.375 0 0
2.25 0 0
2.24375 0.25625 0
2.12188 0.253125 0
2 0.25 0
2.24688 0.128125 0
2.12344 0.126562 0
2 0.125 0
2.25 0 0
2.125 0 0
2 0 0
4 1 0
3.8625 1.0125 0
3.725 1.025 0
4 0.875 0
3.86406 0.885938 0
3.72813 0.896875 0
4 0.75 0
3.86563 0.759375 0
3.73125 0.76875 0
3.725 1.025 0
3.5875 1.0375 0
3.45 1.05 0
3.72813 0.896875 0
3.59219 0.907813 0
3.45625 0.91875 0
3.73125 0.76875 0
3.59688 0.778125 0
3.4625 0.7875 0
4 0.75 0
3.86563 0.759375 0
3.73125 0.76875 0
4 0.625 0
[...]
POINT_DATA 8640
VECTORS v double
1.22634 -0.268612 0
1.19921 -0.215617 0
1.18238 -0.163553 0
1.1498 -0.239456 0
1.11968 -0.194051 0
1.09652 -0.151499 0
1.06124 -0.209126 0
1.02851 -0.170093 0
0.999893 -0.133926 0
1.18238 -0.163553 0
1.16803 -0.125222 0
1.15934 -0.0882244 0
1.09652 -0.151499 0
1.07865 -0.115862 0
1.06541 -0.0845439 0
0.999893 -0.133926 0
0.978154 -0.10243 0
0.960041 -0.075177 0
1.06124 -0.209126 0
1.02851 -0.170093 0
0.999893 -0.133926 0
0.948258 -0.165314 0
0.911587 -0.136002 0
0.881308 -0.108648 0
0.81327 -0.129621 0
0.778255 -0.10776 0
0.747751 -0.0864824 0
0.999893 -0.133926 0
0.978154 -0.10243 0
0.960041 -0.075177 0
0.881308 -0.108648 0
0.856272 -0.0837038 0
0.836888 -0.0619571 0
0.747751 -0.0864824 0
0.722813 -0.066952 0
0.702578 -0.0495703 0
1.15934 -0.0882244 0
1.14836 -0.0622576 0
1.13987 -0.0365836 0
1.06541 -0.0845439 0
1.0523 -0.0593248 0
1.04165 -0.0358583 0
0.960041 -0.075177 0
0.944329 -0.0518295 0
0.93168 -0.0314684 0
1.13987 -0.0365836 0
1.13227 -0.0182347 0
1.125 0 0
1.04165 -0.0358583 0
1.03337 -0.0173025 0
1.02539 0 0
0.93168 -0.0314684 0
0.921986 -0.0145421 0
0.914062 0 0
0.960041 -0.075177 0
0.944329 -0.0518295 0
0.93168 -0.0314684 0
0.836888 -0.0619571 0
0.819946 -0.0430065 0
0.807681 -0.0264811 0
0.702578 -0.0495703 0
0.685949 -0.0345591 0
0.673169 -0.0213244 0
0.93168 -0.0314684 0
0.921986 -0.0145421 0
0.914062 0 0
0.807681 -0.0264811 0
0.797741 -0.0122555 0
0.791016 0 0
0.673169 -0.0213244 0
0.663132 -0.0100062 0
0.65625 0 0
0.81327 -0.129621 0
0.778255 -0.10776 0
0.747751 -0.0864824 0
0.665076 -0.0882871 0
0.629023 -0.0729796 0
0.598313 -0.0583268 0
0.495363 -0.0523798 0
0.460904 -0.0437686 0
0.431874 -0.0355197 0
0.747751 -0.0864824 0
0.722813 -0.066952 0
0.702578 -0.0495703 0
0.598313 -0.0583268 0
0.572717 -0.0450321 0
0.55247 -0.0330001 0
0.431874 -0.0355197 0
0.407606 -0.0277879 0
0.388816 -0.0207946 0
0.495363 -0.0523798 0
0.460904 -0.0437686 0
0.431874 -0.0355197 0
0.28419 -0.0156028 0
0.257796 -0.0126345 0
0.237031 -0.00994919 0
0 0 0
0 0 0
0 0 0
0.431874 -0.0355197 0
0.407606 -0.0277879 0
0.388816 -0.0207946 0
0.237031 -0.00994919 0
0.219137 -0.00743045 0
0.206136 -0.00532508 0
0 0 0
0 0 0
0 0 0
0.702578 -0.0495703 0
0.685949 -0.0345591 0
0.673169 -0.0213244 0
0.55247 -0.0330001 0
0.53611 -0.0224791 0
0.524185 -0.0134791 0
0.388816 -0.0207946 0
0.373852 -0.0146511 0
0.36348 -0.00933558 0
0.673169 -0.0213244 0
0.663132 -0.0100062 0
0.65625 0 0
0.524185 -0.0134791 0
0.515313 -0.00605984 0
0.509766 0 0
0.36348 -0.00933558 0
0.355989 -0.00467547 0
0.351562 0 0
0.388816 -0.0207946 0
0.373852 -0.0146511 0
0.36348 -0.00933558 0
0.206136 -0.00532508 0
0.195763 -0.0035385 0
0.188875 -0.00202752 0
0 0 0
0 0 0
0 0 0
0.36348 -0.00933558 0
0.355989 -0.00467547 0
0.351562 0 0
0.188875 -0.00202752 0
0.18408 -0.000710208 0
0.181641 0 0
0 0 0
0 0 0
0 0 0
1.70672 -0.453116 0
1.6032 -0.487834 0
1.54232 -0.490404 0
1.55924 -0.369038 0
1.48897 -0.391407 0
1.41691 -0.398035 0
1.42554 -0.292634 0
1.36792 -0.316792 0
1.31139 -0.3296 0
1.54232 -0.490404 0
1.44623 -0.477341 0
1.3902 -0.445056 0
1.41691 -0.398035 0
1.35165 -0.393021 0
1.28949 -0.37451 0
1.31139 -0.3296 0
1.25685 -0.328713 0
1.20504 -0.317696 0
1.42554 -0.292634 0
1.36792 -0.316792 0
1.31139 -0.3296 0
1.30895 -0.226899 0
1.258 -0.242676 0
1.20232 -0.250055 0
1.15184 -0.1578 0
1.1031 -0.17187 0
1.05008 -0.180437 0
1.31139 -0.3296 0
1.25685 -0.328713 0
1.20504 -0.317696 0
1.20232 -0.250055 0
1.14961 -0.248953 0
1.09646 -0.240842 0
1.05008 -0.180437 0
1.0022 -0.183216 0
0.953339 -0.180716 0
1.3902 -0.445056 0
1.31805 -0.407927 0
1.28349 -0.360684 0
1.28949 -0.37451 0
1.24189 -0.348505 0
1.19911 -0.313942 0
1.20504 -0.317696 0
1.15978 -0.296725 0
1.11919 -0.270089 0
1.28349 -0.360684 0
1.24136 -0.316715 0
1.22634 -0.268612 0
1.19911 -0.313942 0
1.17151 -0.277813 0
1.1498 -0.239456 0
1.11919 -0.270089 0
1.08777 -0.239943 0
1.06124 -0.209126 0
1.20504 -0.317696 0
1.15978 -0.296725 0
1.11919 -0.270089 0
1.09646 -0.240842 0
1.05127 -0.227283 0
1.00926 -0.209024 0
0.953339 -0.180716 0
0.9127 -0.173295 0
0.873516 -0.161498 0
1.11919 -0.270089 0
1.08777 -0.239943 0
1.06124 -0.209126 0
1.00926 -0.209024 0
0.976185 -0.188008 0
0.948258 -0.165314 0
0.873516 -0.161498 0
0.841889 -0.146615 0
0.81327 -0.129621 0
1.15184 -0.1578 0
1.1031 -0.17187 0
1.05008 -0.180437 0
0.997829 -0.110762 0
0.953773 -0.121011 0
0.905091 -0.127111 0
0.823558 -0.0575001 0
0.781786 -0.0648864 0
0.734976 -0.0696672 0
1.05008 -0.180437 0
1.0022 -0.183216 0
0.953339 -0.180716 0
0.905091 -0.127111 0
0.859374 -0.128547 0
0.812013 -0.125825 0
0.734976 -0.0696672 0
0.689981 -0.0715798 0
0.643338 -0.0709487 0
0.823558 -0.0575001 0
0.781786 -0.0648864 0
0.734976 -0.0696672 0
0.532996 -0.0182006 0
0.504749 -0.0209075 0
0.470585 -0.022536 0
0 0 0
0 0 0
0 0 0
0.734976 -0.0696672 0
0.689981 -0.0715798 0
0.643338 -0.0709487 0
0.470585 -0.022536 0
0.437009 -0.0232869 0
0.401211 -0.0228649 0
0 0 0
0 0 0
0 0 0
0.953339 -0.180716 0
0.9127 -0.173295 0
0.873516 -0.161498 0
0.812013 -0.125825 0
0.770306 -0.119591 0
0.730039 -0.110698 0
0.643338 -0.0709487 0
0.601596 -0.0683939 0
0.561382 -0.0642049 0
0.873516 -0.161498 0
0.841889 -0.146615 0
0.81327 -0.129621 0
0.730039 -0.110698 0
0.695655 -0.100253 0
0.665076 -0.0882871 0
0.561382 -0.0642049 0
0.526552 -0.0588771 0
0.495363 -0.0523798 0
0.643338 -0.0709487 0
0.601596 -0.0683939 0
0.561382 -0.0642049 0
0.401211 -0.0228649 0
0.368292 -0.0218485 0
0.336886 -0.0200748 0
0 0 0
0 0 0
0 0 0
0.561382 -0.0642049 0
0.526552 -0.0588771 0
0.495363 -0.0523798 0
0.336886 -0.0200748 0
0.308509 -0.018014 0
0.28419 -0.0156028 0
0 0 0
0 0 0
0 0 0
1.25093 0.00941548 0
1.32303 0.0172572 0
1.3797 0.0224246 0
1.26014 -0.0673852 0
1.32462 -0.0408573 0
1.37932 -0.0200442 0
1.2512 -0.130955 0
1.3104 -0.0900869 0
1.36288 -0.0584359 0
1.3797 0.0224246 0
1.42081 0.0246762 0
1.451 0.0244285 0
1.37932 -0.0200442 0
1.41704 -0.00731594 0
1.44722 0.000985332 0
1.36288 -0.0584359 0
1.39829 -0.0369479 0
1.42838 -0.0210881 0
1.2512 -0.130955 0
1.3104 -0.0900869 0
1.36288 -0.0584359 0
1.26538 -0.203366 0
1.3122 -0.145377 0
1.35448 -0.100369 0
1.27676 -0.236366 0
1.30674 -0.173974 0
1.33535 -0.123945 0
1.36288 -0.0584359 0
1.39829 -0.0369479 0
1.42838 -0.0210881 0
1.35448 -0.100369 0
1.38305 -0.069351 0
1.4083 -0.0451646 0
1.33535 -0.123945 0
1.35635 -0.0886868 0
1.37592 -0.059457 0
1.451 0.0244285 0
1.47351 0.0217104 0
1.4873 0.0167833 0
1.44722 0.000985332 0
1.46815 0.00478418 0
1.48247 0.0060414 0
1.42838 -0.0210881 0
1.44883 -0.0106593 0
1.4645 -0.00382229 0
1.4873 0.0167833 0
1.49754 0.00949153 0
1.5 0 0
1.48247 0.0060414 0
1.49125 0.004529 0
1.49414 0 0
1.4645 -0.00382229 0
1.47294 -0.000467222 0
1.47656 0 0
1.42838 -0.0210881 0
1.44883 -0.0106593 0
1.4645 -0.00382229 0
1.4083 -0.0451646 0
1.42485 -0.0283384 0
1.43827 -0.0155029 0
1.37592 -0.059457 0
1.38868 -0.0385187 0
1.39956 -0.0216692 0
1.4645 -0.00382229 0
1.47294 -0.000467222 0
1.47656 0 0
1.43827 -0.0155029 0
1.44438 -0.00664531 0
1.44727 0 0
1.39956 -0.0216692 0
1.40411 -0.00980383 0
1.40625 0 0
1.27676 -0.236366 0
1.30674 -0.173974 0
1.33535 -0.123945 0
1.27332 -0.272699 0
1.29324 -0.206881 0
1.30859 -0.151454 0
1.2736 -0.280788 0
1.27747 -0.216379 0
1.2776 -0.160443 0
1.33535 -0.123945 0
1.35635 -0.0886868 0
1.37592 -0.059457 0
1.30859 -0.151454 0
1.32402 -0.112129 0
1.33587 -0.0771424 0
1.2776 -0.160443 0
1.28404 -0.119665 0
1.28739 -0.0827589 0
1.2736 -0.280788 0
1.27747 -0.216379 0
1.2776 -0.160443 0
1.24822 -0.280585 0
1.24294 -0.22353 0
1.22982 -0.168066 0
1.22634 -0.268612 0
1.19921 -0.215617 0
1.18238 -0.163553 0
1.2776 -0.160443 0
1.28404 -0.119665 0
1.28739 -0.0827589 0
1.22982 -0.168066 0
1.23039 -0.128585 0
1.22528 -0.089955 0
1.18238 -0.163553 0
1.16803 -0.125222 0
1.15934 -0.0882244 0
1.37592 -0.059457 0
1.38868 -0.0385187 0
1.39956 -0.0216692 0
1.33587 -0.0771424 0
1.34469 -0.0520999 0
1.35034 -0.0308545 0
1.28739 -0.0827589 0
1.29048 -0.0565694 0
1.29045 -0.0331342 0
1.39956 -0.0216692 0
1.40411 -0.00980383 0
1.40625 0 0
1.35034 -0.0308545 0
1.3535 -0.0154691 0
1.35352 0 0
1.29045 -0.0331342 0
1.29141 -0.0161383 0
1.28906 0 0
1.28739 -0.0827589 0
1.29048 -0.0565694 0
1.29045 -0.0331342 0
1.22528 -0.089955 0
1.22428 -0.0635595 0
1.21889 -0.0377949 0
1.15934 -0.0882244 0
1.14836 -0.0622576 0
1.13987 -0.0365836 0
1.29045 -0.0331342 0
1.29141 -0.0161383 0
1.28906 0 0
1.21889 -0.0377949 0
1.21784 -0.0190896 0
1.21289 0 0
1.13987 -0.0365836 0
1.13227 -0.0182347 0
1.125 0 0
2.15781 0.0312988 0
2.097 -0.0491311 0
2.08289 -0.122649 0
2.0294 0.0826356 0
1.99992 0.000172133 0
1.95593 -0.0750376 0
1.81049 0.107862 0
1.79253 0.0374632 0
1.76754 -0.0262721 0
2.08289 -0.122649 0
2.02129 -0.196891 0
2.00842 -0.254408 0
1.95593 -0.0750376 0
1.91679 -0.137428 0
1.86783 -0.203812 0
1.76754 -0.0262721 0
1.7269 -0.0857962 0
1.6824 -0.141888 0
1.81049 0.107862 0
1.79253 0.0374632 0
1.76754 -0.0262721 0
1.62623 0.090084 0
1.6189 0.0349576 0
1.59803 -0.018889 0
1.45853 0.0943185 0
1.45202 0.0496472 0
1.43526 0.00712363 0
1.76754 -0.0262721 0
1.7269 -0.0857962 0
1.6824 -0.141888 0
1.59803 -0.018889 0
1.57105 -0.0679626 0
1.53249 -0.113296 0
1.43526 0.00712363 0
1.40837 -0.0314934 0
1.37177 -0.0670024 0
2.00842 -0.254408 0
1.93793 -0.32972 0
1.90171 -0.381458 0
1.86783 -0.203812 0
1.8015 -0.261663 0
1.72266 -0.30914 0
1.6824 -0.141888 0
1.62561 -0.193394 0
1.56947 -0.237299 0
1.90171 -0.381458 0
1.77521 -0.421599 0
1.70672 -0.453116 0
1.72266 -0.30914 0
1.64412 -0.34586 0
1.55924 -0.369038 0
1.56947 -0.237299 0
1.49716 -0.268136 0
1.42554 -0.292634 0
1.6824 -0.141888 0
1.62561 -0.193394 0
1.56947 -0.237299 0
1.53249 -0.113296 0
1.48802 -0.151508 0
1.43277 -0.184271 0
1.37177 -0.0670024 0
1.3272 -0.097625 0
1.27492 -0.124299 0
1.56947 -0.237299 0
1.49716 -0.268136 0
1.42554 -0.292634 0
1.43277 -0.184271 0
1.37437 -0.209528 0
1.30895 -0.226899 0
1.27492 -0.124299 0
1.21738 -0.143728 0
1.15184 -0.1578 0
1.45853 0.0943185 0
1.45202 0.0496472 0
1.43526 0.00712363 0
1.24707 0.0809091 0
1.24965 0.0496916 0
1.23871 0.0181915 0
0.984827 0.0671067 0
1.00174 0.0485851 0
1.00583 0.0292499 0
1.43526 0.00712363 0
1.40837 -0.0314934 0
1.37177 -0.0670024 0
1.23871 0.0181915 0
1.2192 -0.0112953 0
1.18844 -0.039113 0
1.00583 0.0292499 0
0.998345 0.0103713 0
0.979557 -0.00789798 0
0.984827 0.0671067 0
1.00174 0.0485851 0
1.00583 0.0292499 0
0.589042 0.0208783 0
0.613264 0.0160538 0
0.629416 0.0104671 0
0 0 0
0 0 0
0 0 0
1.00583 0.0292499 0
0.998345 0.0103713 0
0.979557 -0.00789798 0
0.629416 0.0104671 0
0.63516 0.00474549 0
0.631791 -0.000999076 0
0 0 0
0 0 0
0 0 0
1.37177 -0.0670024 0
1.3272 -0.097625 0
1.27492 -0.124299 0
1.18844 -0.039113 0
1.15113 -0.0630868 0
1.10426 -0.0835396 0
0.979557 -0.00789798 0
0.951685 -0.0241453 0
0.914871 -0.0385153 0
1.27492 -0.124299 0
1.21738 -0.143728 0
1.15184 -0.1578 0
1.10426 -0.0835396 0
1.05433 -0.0990509 0
0.997829 -0.110762 0
0.914871 -0.0385153 0
0.872806 -0.0495168 0
0.823558 -0.0575001 0
0.979557 -0.00789798 0
0.951685 -0.0241453 0
0.914871 -0.0385153 0
0.631791 -0.000999076 0
0.619057 -0.00617714 0
0.597119 -0.0110804 0
0 0 0
0 0 0
0 0 0
0.914871 -0.0385153 0
0.872806 -0.0495168 0
0.823558 -0.0575001 0
0.597119 -0.0110804 0
0.568987 -0.0151235 0
0.532996 -0.0182006 0
0 0 0
0 0 0
0 0 0
1.37511 0.572531 0
1.56564 0.619799 0
1.7501 0.629693 0
1.29068 0.476728 0
1.40297 0.500809 0
1.52718 0.5257 0
1.21747 0.392658 0
1.32635 0.414285 0
1.38519 0.414177 0
1.7501 0.629693 0
1.88086 0.583245 0
1.98028 0.503226 0
1.52718 0.5257 0
1.68895 0.515534 0
1.8242 0.463049 0
1.38519 0.414177 0
1.46049 0.402708 0
1.54015 0.377753 0
1.21747 0.392658 0
1.32635 0.414285 0
1.38519 0.414177 0
1.05347 0.294009 0
1.17573 0.329124 0
1.28615 0.346246 0
0.868161 0.214659 0
0.956609 0.23338 0
1.04667 0.249195 0
1.38519 0.414177 0
1.46049 0.402708 0
1.54015 0.377753 0
1.28615 0.346246 0
1.38407 0.333306 0
1.4568 0.305227 0
1.04667 0.249195 0
1.15354 0.254258 0
1.25092 0.248199 0
1.98028 0.503226 0
2.06771 0.406814 0
2.13564 0.284716 0
1.8242 0.463049 0
1.91496 0.381869 0
1.97849 0.290594 0
1.54015 0.377753 0
1.63917 0.32849 0
1.71509 0.263561 0
2.13564 0.284716 0
2.15909 0.152963 0
2.15781 0.0312988 0
1.97849 0.290594 0
2.01565 0.192279 0
2.0294 0.0826356 0
1.71509 0.263561 0
1.77512 0.188762 0
1.81049 0.107862 0
1.54015 0.377753 0
1.63917 0.32849 0
1.71509 0.263561 0
1.4568 0.305227 0
1.51983 0.263057 0
1.56738 0.210966 0
1.25092 0.248199 0
1.3337 0.223768 0
1.39371 0.188247 0
1.71509 0.263561 0
1.77512 0.188762 0
1.81049 0.107862 0
1.56738 0.210966 0
1.60458 0.152161 0
1.62623 0.090084 0
1.39371 0.188247 0
1.43522 0.14359 0
1.45853 0.0943185 0
0.868161 0.214659 0
0.956609 0.23338 0
1.04667 0.249195 0
0.647655 0.1388 0
0.745662 0.152086 0
0.83532 0.163655 0
0.408957 0.0704066 0
0.487484 0.0785212 0
0.551665 0.0862274 0
1.04667 0.249195 0
1.15354 0.254258 0
1.25092 0.248199 0
0.83532 0.163655 0
0.933444 0.166099 0
1.0182 0.163266 0
0.551665 0.0862274 0
0.643048 0.0933871 0
0.723942 0.0980968 0
0.408957 0.0704066 0
0.487484 0.0785212 0
0.551665 0.0862274 0
0.190635 0.0221603 0
0.257344 0.0228537 0
0.293644 0.0227131 0
0 0 0
0 0 0
0 0 0
0.551665 0.0862274 0
0.643048 0.0933871 0
0.723942 0.0980968 0
0.293644 0.0227131 0
0.347813 0.0225379 0
0.393916 0.0224967 0
0 0 0
0 0 0
0 0 0
1.25092 0.248199 0
1.3337 0.223768 0
1.39371 0.188247 0
1.0182 0.163266 0
1.09996 0.152895 0
1.16388 0.13548 0
0.723942 0.0980968 0
0.808981 0.098476 0
0.879414 0.0932852 0
1.39371 0.188247 0
1.43522 0.14359 0
1.45853 0.0943185 0
1.16388 0.13548 0
1.21486 0.111074 0
1.24707 0.0809091 0
0.879414 0.0932852 0
0.94047 0.0826551 0
0.984827 0.0671067 0
0.723942 0.0980968 0
0.808981 0.098476 0
0.879414 0.0932852 0
0.393916 0.0224967 0
0.446406 0.023844 0
0.496161 0.024294 0
0 0 0
0 0 0
0 0 0
0.879414 0.0932852 0
0.94047 0.0826551 0
0.984827 0.0671067 0
0.496161 0.024294 0
0.545081 0.023444 0
0.589042 0.0208783 0
0 0 0
0 0 0
0 0 0
1.00524 1.51525 0
0.916137 1.35754 0
0.83234 0.988763 0
1.23709 1.50439 0
1.17908 1.38935 0
1.17444 1.09364 0
1.43689 1.47165 0
1.40688 1.40574 0
1.47148 1.22844 0
0.83234 0.988763 0
0.621302 0.511919 0
0.474762 -0.0247747 0
1.17444 1.09364 0
0.88368 0.578328 0
0.723346 0.153 0
1.47148 1.22844 0
1.31802 0.739553 0
1.04126 0.208613 0
1.43689 1.47165 0
1.40688 1.40574 0
1.47148 1.22844 0
1.53815 1.34442 0
1.64101 1.35326 0
1.6023 1.1739 0
1.54273 1.14829 0
1.82847 1.294 0
1.90545 1.15717 0
1.47148 1.22844 0
1.31802 0.739553 0
1.04126 0.208613 0
1.6023 1.1739 0
1.58699 0.907309 0
1.4455 0.443922 0
1.90545 1.15717 0
1.77879 0.928432 0
1.72059 0.634665 0
0.474762 -0.0247747 0
0.201533 -0.441613 0
-0.0970107 -0.802118 0
0.723346 0.153 0
0.539381 -0.255836 0
0.271368 -0.645957 0
1.04126 0.208613 0
0.879968 -0.124411 0
0.652862 -0.514591 0
-0.0970107 -0.802118 0
-0.365367 -1.15986 0
-0.528724 -1.29166 0
0.271368 -0.645957 0
0.0365549 -0.969883 0
-0.228114 -1.11218 0
0.652862 -0.514591 0
0.403928 -0.776222 0
0.102649 -0.993433 0
1.04126 0.208613 0
0.879968 -0.124411 0
0.652862 -0.514591 0
1.4455 0.443922 0
1.20174 0.0583615 0
1.01566 -0.259246 0
1.72059 0.634665 0
1.46769 0.2224 0
1.25684 -0.13419 0
0.652862 -0.514591 0
0.403928 -0.776222 0
0.102649 -0.993433 0
1.01566 -0.259246 0
0.743869 -0.533758 0
0.481568 -0.75673 0
1.25684 -0.13419 0
0.998497 -0.394737 0
0.708249 -0.568944 0
1.54273 1.14829 0
1.82847 1.294 0
1.90545 1.15717 0
1.54449 0.982356 0
1.7366 1.10591 0
2.00817 1.11681 0
1.5962 0.856056 0
1.67747 0.897658 0
1.8409 0.910833 0
1.90545 1.15717 0
1.77879 0.928432 0
1.72059 0.634665 0
2.00817 1.11681 0
2.04689 0.946123 0
2.00524 0.701078 0
1.8409 0.910833 0
2.10172 0.871003 0
2.24642 0.695064 0
1.5962 0.856056 0
1.67747 0.897658 0
1.8409 0.910833 0
1.50907 0.72429 0
1.66548 0.766954 0
1.77716 0.764548 0
1.37511 0.572531 0
1.56564 0.619799 0
1.7501 0.629693 0
1.8409 0.910833 0
2.10172 0.871003 0
2.24642 0.695064 0
1.77716 0.764548 0
1.9334 0.750668 0
2.1188 0.659632 0
1.7501 0.629693 0
1.88086 0.583245 0
1.98028 0.503226 0
1.72059 0.634665 0
1.46769 0.2224 0
1.25684 -0.13419 0
2.00524 0.701078 0
1.80649 0.41898 0
1.57203 0.0800411 0
2.24642 0.695064 0
2.1581 0.508174 0
2.01278 0.300889 0
1.25684 -0.13419 0
0.998497 -0.394737 0
0.708249 -0.568944 0
1.57203 0.0800411 0
1.27349 -0.179427 0
0.97734 -0.316139 0
2.01278 0.300889 0
1.74994 0.123954 0
1.48233 -0.0104973 0
2.24642 0.695064 0
2.1581 0.508174 0
2.01278 0.300889 0
2.1188 0.659632 0
2.18607 0.508721 0
2.19896 0.326795 0
1.98028 0.503226 0
2.06771 0.406814 0
2.13564 0.284716 0
2.01278 0.300889 0
1.74994 0.123954 0
1.48233 -0.0104973 0
2.19896 0.326795 0
2.13428 0.155915 0
2.05462 0.00336428 0
2.13564 0.284716 0
2.15909 0.152963 0
2.15781 0.0312988 0
1.29281 0.318382 0
1.26863 0.289727 0
1.18023 0.182818 0
0.906205 0.332914 0
0.835145 0.343594 0
0.854867 0.189434 0
0.672731 0.391109 0
0.495997 0.292492 0
0.425321 0.0430348 0
1.18023 0.182818 0
1.18852 0.0704406 0
1.14254 -0.0583446 0
0.854867 0.189434 0
0.955833 0.0708544 0
1.02933 -0.120996 0
0.425321 0.0430348 0
0.549264 -0.160455 0
0.732577 -0.237549 0
0.672731 0.391109 0
0.495997 0.292492 0
0.425321 0.0430348 0
0.560465 0.632318 0
0.317844 0.459307 0
0.218818 0.178854 0
0.433701 0.824503 0
0.264163 0.637383 0
0.119696 0.269082 0
0.425321 0.0430348 0
0.549264 -0.160455 0
0.732577 -0.237549 0
0.218818 0.178854 0
0.179888 -0.237325 0
0.273842 -0.561534 0
0.119696 0.269082 0
0.00331567 -0.145302 0
-0.120026 -0.577834 0
1.14254 -0.0583446 0
1.28068 -0.186736 0
1.3612 -0.289182 0
1.02933 -0.120996 0
1.15463 -0.292915 0
1.28394 -0.427089 0
0.732577 -0.237549 0
0.955345 -0.431945 0
1.23942 -0.625148 0
1.3612 -0.289182 0
1.50406 -0.344212 0
1.62297 -0.372648 0
1.28394 -0.427089 0
1.50162 -0.53208 0
1.70879 -0.568249 0
1.23942 -0.625148 0
1.4827 -0.710687 0
1.70005 -0.74056 0
0.732577 -0.237549 0
0.955345 -0.431945 0
1.23942 -0.625148 0
0.273842 -0.561534 0
0.663797 -0.70538 0
0.936142 -0.808235 0
-0.120026 -0.577834 0
0.154145 -0.886544 0
0.440351 -0.995063 0
1.23942 -0.625148 0
1.4827 -0.710687 0
1.70005 -0.74056 0
0.936142 -0.808235 0
1.12198 -0.969267 0
1.30451 -0.919526 0
0.440351 -0.995063 0
0.603171 -1.15653 0
0.797117 -1.07031 0
0.433701 0.824503 0
0.264163 0.637383 0
0.119696 0.269082 0
0.453361 1.04511 0
0.295105 0.815974 0
0.141728 0.401755 0
0.64216 1.30673 0
0.395495 1.00063 0
0.309517 0.643797 0
0.119696 0.269082 0
0.00331567 -0.145302 0
-0.120026 -0.577834 0
0.141728 0.401755 0
-0.037235 -0.126553 0
-0.228869 -0.732467 0
0.309517 0.643797 0
0.0438918 0.144947 0
-0.182218 -0.502854 0
0.64216 1.30673 0
0.395495 1.00063 0
0.309517 0.643797 0
0.790293 1.42263 0
0.637774 1.1626 0
0.544472 0.744073 0
1.00524 1.51525 0
0.916137 1.35754 0
0.83234 0.988763 0
0.309517 0.643797 0
0.0438918 0.144947 0
-0.182218 -0.502854 0
0.544472 0.744073 0
0.318181 0.265318 0
0.10125 -0.290872 0
0.83234 0.988763 0
0.621302 0.511919 0
0.474762 -0.0247747 0
-0.120026 -0.577834 0
0.154145 -0.886544 0
0.440351 -0.995063 0
-0.228869 -0.732467 0
-0.178908 -1.06954 0
-0.113198 -1.22883 0
-0.182218 -0.502854 0
-0.283524 -1.06033 0
-0.390881 -1.28794 0
0.440351 -0.995063 0
0.603171 -1.15653 0
0.797117 -1.07031 0
-0.113198 -1.22883 0
0.010771 -1.31213 0
0.209291 -1.07663 0
-0.390881 -1.28794 0
-0.428067 -1.43418 0
-0.274841 -1.21301 0
-0.182218 -0.502854 0
-0.283524 -1.06033 0
-0.390881 -1.28794 0
0.10125 -0.290872 0
-0.145867 -0.770263 0
-0.382666 -1.11849 0
0.474762 -0.0247747 0
0.201533 -0.441613 0
-0.0970107 -0.802118 0
-0.390881 -1.28794 0
-0.428067 -1.43418 0
-0.274841 -1.21301 0
-0.382666 -1.11849 0
-0.569182 -1.37307 0
-0.566285 -1.31245 0
-0.0970107 -0.802118 0
-0.365367 -1.15986 0
-0.528724 -1.29166 0
0 0 0
0 0 0
0 0 0
0.403555 0.0042117 0
0.394469 0.00314718 0
0.399548 0.00202001 0
0.788706 0.00893383 0
0.782801 0.00968247 0
0.778997 0.0091997 0
0 0 0
0 0 0
0 0 0
0.399548 0.00202001 0
0.397081 -0.000238811 0
0.406058 -0.00303698 0
0.778997 0.0091997 0
0.776515 0.00356613 0
0.782051 -0.00314182 0
0.788706 0.00893383 0
0.782801 0.00968247 0
0.778997 0.0091997 0
1.06515 0.0342293 0
1.04708 0.0325669 0
1.02912 0.0284631 0
1.20771 0.0656876 0