# vtk DataFile Version 3.0
#This file was generated by the deal.II library on 2025/1/4 at 9:48:52
ASCII
DATASET UNSTRUCTURED_GRID

POINTS 8640 double
1.1 1.1 0
0.9625 1.09063 0
0.825 1.08125 0
1.0875 0.9625 0
0.951563 0.954297 0
0.815625 0.946094 0
1.075 0.825 0
0.940625 0.817969 0
0.80625 0.810937 0
0.825 1.08125 0
0.6875 1.07187 0
0.55 1.0625 0
0.815625 0.946094 0
0.679688 0.937891 0
0.54375 0.929688 0
0.80625 0.810937 0
0.671875 0.803906 0
0.5375 0.796875 0
1.075 0.825 0
0.940625 0.817969 0
0.80625 0.810937 0
1.0625 0.6875 0
0.929688 0.681641 0
0.796875 0.675781 0
1.05 0.55 0
0.91875 0.545313 0
0.7875 0.540625 0
0.80625 0.810937 0
0.671875 0.803906 0
0.5375 0.796875 0
0.796875 0.675781 0
0.664062 0.669922 0
0.53125 0.664062 0
0.7875 0.540625 0
0.65625 0.535937 0
0.525 0.53125 0
0.55 1.0625 0
0.4125 1.05313 0
0.275 1.04375 0
0.54375 0.929688 0
0.407813 0.921484 0
0.271875 0.913281 0
0.5375 0.796875 0
0.403125 0.789844 0
0.26875 0.782813 0
0.275 1.04375 0
0.1375 1.03437 0
0 1.025 0
0.271875 0.913281 0
0.135938 0.905078 0
0 0.896875 0
0.26875 0.782813 0
0.134375 0.775781 0
0 0.76875 0
0.5375 0.796875 0
0.403125 0.789844 0
0.26875 0.782813 0
0.53125 0.664062 0
0.398438 0.658203 0
0.265625 0.652344 0
0.525 0.53125 0
0.39375 0.526563 0
0.2625 0.521875 0
0.26875 0.782813 0
0.134375 0.775781 0
0 0.76875 0
0.265625 0.652344 0
0.132812 0.646484 0
0 0.640625 0
0.2625 0.521875 0
0.13125 0.517187 0
0 0.5125 0
1.05 0.55 0
0.91875 0.545313 0
0.7875 0.540625 0
1.0375 0.4125 0
0.907812 0.408984 0
0.778125 0.405469 0
1.025 0.275 0
0.896875 0.272656 0
0.76875 0.270313 0
0.7875 0.540625 0
0.65625 0.535937 0
0.525 0.53125 0
0.778125 0.405469 0
0.648438 0.401953 0
0.51875 0.398438 0
0.76875 0.270313 0
0.640625 0.267969 0
0.5125 0.265625 0
1.025 0.275 0
0.896875 0.272656 0
0.76875 0.270313 0
1.0125 0.1375 0
0.885937 0.136328 0
0.759375 0.135156 0
1 0 0
0.875 0 0
0.75 0 0
0.76875 0.270313 0
0.640625 0.267969 0
0.5125 0.265625 0
0.759375 0.135156 0
0.632812 0.133984 0
0.50625 0.132812 0
0.75 0 0
0.625 0 0
0.5 0 0
0.525 0.53125 0
0.39375 0.526563 0
0.2625 0.521875 0
0.51875 0.398438 0
0.389062 0.394922 0
0.259375 0.391406 0
0.5125 0.265625 0
0.384375 0.263281 0
0.25625 0.260937 0
0.2625 0.521875 0
0.13125 0.517187 0
0 0.5125 0
0.259375 0.391406 0
0.129688 0.387891 0
0 0.384375 0
0.25625 0.260937 0
0.128125 0.258594 0
0 0.25625 0
0.5125 0.265625 0
0.384375 0.263281 0
0.25625 0.260937 0
0.50625 0.132812 0
0.379687 0.131641 0
0.253125 0.130469 0
0.5 0 0
0.375 0 0
0.25 0 0
0.25625 0.260937 0
0.128125 0.258594 0
0 0.25625 0
0.253125 0.130469 0
0.126562 0.129297 0
0 0.128125 0
0.25 0 0
0.125 0 0
0 0 0
2 1 0
1.8875 1.0125 0
1.775 1.025 0
2 0.875 0
1.88594 0.885938 0
1.77188 0.896875 0
2 0.75 0
1.88437 0.759375 0
1.76875 0.76875 0
1.775 1.025 0
1.6625 1.0375 0
1.55 1.05 0
1.77188 0.896875 0
1.65781 0.907813 0
1.54375 0.91875 0
1.76875 0.76875 0
1.65313 0.778125 0
1.5375 0.7875 0
2 0.75 0
1.88437 0.759375 0
1.76875 0.76875 0
2 0.625 0
1.88281 0.632812 0
1.76562 0.640625 0
2 0.5 0
1.88125 0.50625 0
1.7625 0.5125 0
1.76875 0.76875 0
1.65313 0.778125 0
1.5375 0.7875 0
1.76562 0.640625 0
1.64844 0.648438 0
1.53125 0.65625 0
1.7625 0.5125 0
1.64375 0.51875 0
1.525 0.525 0
1.55 1.05 0
1.4375 1.0625 0
1.325 1.075 0
1.54375 0.91875 0
1.42969 0.929688 0
1.31563 0.940625 0
1.5375 0.7875 0
1.42188 0.796875 0
1.30625 0.80625 0
1.325 1.075 0
1.2125 1.0875 0
1.1 1.1 0
1.31563 0.940625 0
1.20156 0.951563 0
1.0875 0.9625 0
1.30625 0.80625 0
1.19063 0.815625 0
1.075 0.825 0
1.5375 0.7875 0
1.42188 0.796875 0
1.30625 0.80625 0
1.53125 0.65625 0
1.41406 0.664062 0
1.29688 0.671875 0
1.525 0.525 0
1.40625 0.53125 0
1.2875 0.5375 0
1.30625 0.80625 0
1.19063 0.815625 0
1.075 0.825 0
1.29688 0.671875 0
1.17969 0.679688 0
1.0625 0.6875 0
1.2875 0.5375 0
1.16875 0.54375 0
1.05 0.55 0
2 0.5 0
1.88125 0.50625 0
1.7625 0.5125 0
2 0.375 0
1.87969 0.379687 0
1.75938 0.384375 0
2 0.25 0
1.87813 0.253125 0
1.75625 0.25625 0
1.7625 0.5125 0
1.64375 0.51875 0
1.525 0.525 0
1.75938 0.384375 0
1.63906 0.389063 0
1.51875 0.39375 0
1.75625 0.25625 0
1.63438 0.259375 0
1.5125 0.2625 0
2 0.25 0
1.87813 0.253125 0
1.75625 0.25625 0
2 0.125 0
1.87656 0.126562 0
1.75313 0.128125 0
2 0 0
1.875 0 0
1.75 0 0
1.75625 0.25625 0
1.63438 0.259375 0
1.5125 0.2625 0
1.75313 0.128125 0
1.62969 0.129688 0
1.50625 0.13125 0
1.75 0 0
1.625 0 0
1.5 0 0
1.525 0.525 0
1.40625 0.53125 0
1.2875 0.5375 0
1.51875 0.39375 0
1.39844 0.398438 0
1.27813 0.403125 0
1.5125 0.2625 0
1.39062 0.265625 0
1.26875 0.26875 0
1.2875 0.5375 0
1.16875 0.54375 0
1.05 0.55 0
1.27813 0.403125 0
1.15781 0.407813 0
1.0375 0.4125 0
1.26875 0.26875 0
1.14688 0.271875 0
1.025 0.275 0
1.5125 0.2625 0
1.39062 0.265625 0
1.26875 0.26875 0
1.50625 0.13125 0
1.38281 0.132812 0
1.25937 0.134375 0
1.5 0 0
1.375 0 0
1.25 0 0
1.26875 0.26875 0
1.14688 0.271875 0
1.025 0.275 0
1.25937 0.134375 0
1.13594 0.135938 0
1.0125 0.1375 0
1.25 0 0
1.125 0 0
1 0 0
1 2 0
0.875 2.00625 0
0.75 2.0125 0
1.0125 1.8875 0
0.885938 1.8918 0
0.759375 1.89609 0
1.025 1.775 0
0.896875 1.77734 0
0.76875 1.77969 0
0.75 2.0125 0
0.625 2.01875 0
0.5 2.025 0
0.759375 1.89609 0
0.632812 1.90039 0
0.50625 1.90469 0
0.76875 1.77969 0
0.640625 1.78203 0
0.5125 1.78437 0
1.025 1.775 0
0.896875 1.77734 0
0.76875 1.77969 0
1.0375 1.6625 0
0.907813 1.66289 0
0.778125 1.66328 0
1.05 1.55 0
0.91875 1.54844 0
0.7875 1.54688 0
0.76875 1.77969 0
0.640625 1.78203 0
0.5125 1.78437 0
0.778125 1.66328 0
0.648438 1.66367 0
0.51875 1.66406 0
0.7875 1.54688 0
0.65625 1.54531 0
0.525 1.54375 0
0.5 2.025 0
0.375 2.03125 0
0.25 2.0375 0
0.50625 1.90469 0
0.379687 1.90898 0
0.253125 1.91328 0
0.5125 1.78437 0
0.384375 1.78672 0
0.25625 1.78906 0
0.25 2.0375 0
0.125 2.04375 0
0 2.05 0
0.253125 1.91328 0
0.126562 1.91758 0
0 1.92187 0
0.25625 1.78906 0
0.128125 1.79141 0
0 1.79375 0
0.5125 1.78437 0
0.384375 1.78672 0
0.25625 1.78906 0
0.51875 1.66406 0
0.389062 1.66445 0
0.259375 1.66484 0
0.525 1.54375 0
0.39375 1.54219 0
0.2625 1.54062 0
0.25625 1.78906 0
0.128125 1.79141 0
0 1.79375 0
0.259375 1.66484 0
0.129688 1.66523 0
0 1.66562 0
0.2625 1.54062 0
0.13125 1.53906 0
0 1.5375 0
1.05 1.55 0
0.91875 1.54844 0
0.7875 1.54688 0
1.0625 1.4375 0
0.929688 1.43398 0
0.796875 1.43047 0
1.075 1.325 0
0.940625 1.31953 0
0.80625 1.31406 0
0.7875 1.54688 0
0.65625 1.54531 0
0.525 1.54375 0
0.796875 1.43047 0
0.664062 1.42695 0
0.53125 1.42344 0
0.80625 1.31406 0
0.671875 1.30859 0
0.5375 1.30312 0
1.075 1.325 0
0.940625 1.31953 0
0.80625 1.31406 0
1.0875 1.2125 0
0.951563 1.20508 0
0.815625 1.19766 0
1.1 1.1 0
0.9625 1.09063 0
0.825 1.08125 0
0.80625 1.31406 0
0.671875 1.30859 0
0.5375 1.30312 0
0.815625 1.19766 0
0.679688 1.19023 0
0.54375 1.18281 0
0.825 1.08125 0
0.6875 1.07187 0
0.55 1.0625 0
0.525 1.54375 0
0.39375 1.54219 0
0.2625 1.54062 0
0.53125 1.42344 0
0.398438 1.41992 0
0.265625 1.41641 0
0.5375 1.30312 0
0.403125 1.29766 0
0.26875 1.29219 0
0.2625 1.54062 0
0.13125 1.53906 0
0 1.5375 0
0.265625 1.41641 0
0.132812 1.41289 0
0 1.40937 0
0.26875 1.29219 0
0.134375 1.28672 0
0 1.28125 0
0.5375 1.30312 0
0.403125 1.29766 0
0.26875 1.29219 0
0.54375 1.18281 0
0.407813 1.17539 0
0.271875 1.16797 0
0.55 1.0625 0
0.4125 1.05313 0
0.275 1.04375 0
0.26875 1.29219 0
0.134375 1.28672 0
0 1.28125 0
0.271875 1.16797 0
0.135938 1.16055 0
0 1.15312 0
0.275 1.04375 0
0.1375 1.03437 0
0 1.025 0
2.9 1.1 0
2.7875 1.0875 0
2.675 1.075 0
2.9125 0.9625 0
2.79844 0.951563 0
2.68438 0.940625 0
2.925 0.825 0
2.80938 0.815625 0
2.69375 0.80625 0
2.675 1.075 0
2.5625 1.0625 0
2.45 1.05 0
2.68438 0.940625 0
2.57031 0.929688 0
2.45625 0.91875 0
2.69375 0.80625 0
2.57812 0.796875 0
2.4625 0.7875 0
2.925 0.825 0
2.80938 0.815625 0
2.69375 0.80625 0
2.9375 0.6875 0
2.82031 0.679688 0
2.70312 0.671875 0
2.95 0.55 0
2.83125 0.54375 0
2.7125 0.5375 0
2.69375 0.80625 0
2.57812 0.796875 0
2.4625 0.7875 0
2.70312 0.671875 0
2.58594 0.664062 0
2.46875 0.65625 0
2.7125 0.5375 0
2.59375 0.53125 0
2.475 0.525 0
2.45 1.05 0
2.3375 1.0375 0
2.225 1.025 0
2.45625 0.91875 0
2.34219 0.907813 0
2.22813 0.896875 0
2.4625 0.7875 0
2.34688 0.778125 0
2.23125 0.76875 0
2.225 1.025 0
2.1125 1.0125 0
2 1 0
2.22813 0.896875 0
2.11406 0.885938 0
2 0.875 0
2.23125 0.76875 0
2.11563 0.759375 0
2 0.75 0
2.4625 0.7875 0
2.34688 0.778125 0
2.23125 0.76875 0
2.46875 0.65625 0
2.35156 0.648438 0
2.23438 0.640625 0
2.475 0.525 0
2.35625 0.51875 0
2.2375 0.5125 0
2.23125 0.76875 0
2.11563 0.759375 0
2 0.75 0
2.23438 0.640625 0
2.11719 0.632812 0
2 0.625 0
2.2375 0.5125 0
2.11875 0.50625 0
2 0.5 0
2.95 0.55 0
2.83125 0.54375 0
2.7125 0.5375 0
2.9625 0.4125 0
2.84219 0.407813 0
2.72188 0.403125 0
2.975 0.275 0
2.85313 0.271875 0
2.73125 0.26875 0
2.7125 0.5375 0
2.59375 0.53125 0
2.475 0.525 0
2.72188 0.403125 0
2.60156 0.398438 0
2.48125 0.39375 0
2.73125 0.26875 0
2.60938 0.265625 0
2.4875 0.2625 0
2.975 0.275 0
2.85313 0.271875 0
2.73125 0.26875 0
2.9875 0.1375 0
2.86406 0.135938 0
2.74063 0.134375 0
3 0 0
2.875 0 0
2.75 0 0
2.73125 0.26875 0
2.60938 0.265625 0
2.4875 0.2625 0
2.74063 0.134375 0
2.61719 0.132812 0
2.49375 0.13125 0
2.75 0 0
2.625 0 0
2.5 0 0
2.475 0.525 0
2.35625 0.51875 0
2.2375 0.5125 0
2.48125 0.39375 0
2.36094 0.389063 0
2.24062 0.384375 0
2.4875 0.2625 0
2.36562 0.259375 0
2.24375 0.25625 0
2.2375 0.5125 0
2.11875 0.50625 0
2 0.5 0
2.24062 0.384375 0
2.12031 0.379687 0
2 0.375 0
2.24375 0.25625 0
2.12188 0.253125 0
2 0.25 0
2.4875 0.2625 0
2.36562 0.259375 0
2.24375 0.25625 0
2.49375 0.13125 0
2.37031 0.129688 0
2.24688 0.128125 0
2.5 0 0
2.375 0 0
2.25 0 0
2.24375 0.25625 0
2.12188 0.253125 0
2 0.25 0
2.24688 0.128125 0
2.12344 0.126562 0
2 0.125 0
2.25 0 0
2.125 0 0
2 0 0
4 1 0
3.8625 1.0125 0
3.725 1.025 0
4 0.875 0
3.86406 0.885938 0
3.72813 0.896875 0
4 0.75 0
3.86563 0.759375 0
3.73125 0.76875 0
3.725 1.025 0
3.5875 1.0375 0
3.45 1.05 0
3.72813 0.896875 0
3.59219 0.907813 0
3.45625 0.91875 0
3.73125 0.76875 0
3.59688 0.778125 0
3.4625 0.7875 0
4 0.75 0
3.86563 0.759375 0
3.73125 0.76875 0
4 0.625 0
3.86719 0.632812 0
[...]
POINT_DATA 8640
VECTORS v double
1.23542 -0.293304 0
1.20855 -0.239859 0
1.1902 -0.188325 0
1.16255 -0.262036 0
1.12872 -0.215991 0
1.10659 -0.174917 0
1.07425 -0.228853 0
1.04069 -0.190507 0
1.00968 -0.15442 0
1.1902 -0.188325 0
1.17392 -0.148568 0
1.16248 -0.11019 0
1.10659 -0.174917 0
1.08319 -0.137584 0
1.06937 -0.104834 0
1.00968 -0.15442 0
0.984921 -0.122138 0
0.963972 -0.0929152 0
1.07425 -0.228853 0
1.04069 -0.190507 0
1.00968 -0.15442 0
0.965148 -0.182135 0
0.926086 -0.152841 0
0.892791 -0.125679 0
0.832785 -0.142975 0
0.794233 -0.12123 0
0.760603 -0.100412 0
1.00968 -0.15442 0
0.984921 -0.122138 0
0.963972 -0.0929152 0
0.892791 -0.125679 0
0.86475 -0.100498 0
0.842148 -0.0771788 0
0.760603 -0.100412 0
0.732023 -0.0806307 0
0.708834 -0.0621659 0
1.16248 -0.11019 0
1.15095 -0.080053 0
1.14197 -0.0497136 0
1.06937 -0.104834 0
1.05289 -0.0754497 0
1.04409 -0.0485473 0
0.963972 -0.0929152 0
0.946924 -0.0666471 0
0.93415 -0.0426959 0
1.14197 -0.0497136 0
1.13282 -0.0248832 0
1.125 0 0
1.04409 -0.0485473 0
1.03193 -0.0236811 0
1.02539 0 0
0.93415 -0.0426959 0
0.922054 -0.0206327 0
0.914062 0 0
0.963972 -0.0929152 0
0.946924 -0.0666471 0
0.93415 -0.0426959 0
0.842148 -0.0771788 0
0.823597 -0.0554485 0
0.810119 -0.0358736 0
0.708834 -0.0621659 0
0.689449 -0.0449632 0
0.675311 -0.0292883 0
0.93415 -0.0426959 0
0.922054 -0.0206327 0
0.914062 0 0
0.810119 -0.0358736 0
0.798468 -0.0176677 0
0.791016 0 0
0.675311 -0.0292883 0
0.663431 -0.014491 0
0.65625 0 0
0.832785 -0.142975 0
0.794233 -0.12123 0
0.760603 -0.100412 0
0.686153 -0.0979423 0
0.646796 -0.0829613 0
0.612444 -0.0685541 0
0.516634 -0.0584437 0
0.47926 -0.0499085 0
0.446818 -0.0417737 0
0.760603 -0.100412 0
0.732023 -0.0806307 0
0.708834 -0.0621659 0
0.612444 -0.0685541 0
0.583228 -0.05494 0
0.559601 -0.042279 0
0.446818 -0.0417737 0
0.419083 -0.0339768 0
0.396944 -0.0267606 0
0.516634 -0.0584437 0
0.47926 -0.0499085 0
0.446818 -0.0417737 0
0.306666 -0.0178769 0
0.276877 -0.0148793 0
0.252508 -0.0122451 0
0 0 0
0 0 0
0 0 0
0.446818 -0.0417737 0
0.419083 -0.0339768 0
0.396944 -0.0267606 0
0.252508 -0.0122451 0
0.230866 -0.009666 0
0.214487 -0.00745028 0
0 0 0
0 0 0
0 0 0
0.708834 -0.0621659 0
0.689449 -0.0449632 0
0.675311 -0.0292883 0
0.559601 -0.042279 0
0.540246 -0.0304384 0
0.52637 -0.0195081 0
0.396944 -0.0267606 0
0.378848 -0.0198584 0
0.366238 -0.0134598 0
0.675311 -0.0292883 0
0.663431 -0.014491 0
0.65625 0 0
0.52637 -0.0195081 0
0.515634 -0.00922914 0
0.509766 0 0
0.366238 -0.0134598 0
0.356592 -0.00709593 0
0.351562 0 0
0.396944 -0.0267606 0
0.378848 -0.0198584 0
0.366238 -0.0134598 0
0.214487 -0.00745028 0
0.200685 -0.00523822 0
0.191668 -0.00330861 0
0 0 0
0 0 0
0 0 0
0.366238 -0.0134598 0
0.356592 -0.00709593 0
0.351562 0 0
0.191668 -0.00330861 0
0.184664 -0.0014229 0
0.181641 0 0
0 0 0
0 0 0
0 0 0
1.72063 -0.489991 0
1.61644 -0.515267 0
1.55307 -0.51519 0
1.58371 -0.402528 0
1.51072 -0.418695 0
1.44045 -0.422495 0
1.45999 -0.324059 0
1.4001 -0.343421 0
1.33888 -0.352104 0
1.55307 -0.51519 0
1.45841 -0.497204 0
1.40167 -0.466894 0
1.44045 -0.422495 0
1.37009 -0.414053 0
1.30973 -0.395578 0
1.33888 -0.352104 0
1.28361 -0.34923 0
1.22638 -0.335967 0
1.45999 -0.324059 0
1.4001 -0.343421 0
1.33888 -0.352104 0
1.35207 -0.251925 0
1.29607 -0.264185 0
1.23754 -0.269184 0
1.19906 -0.178592 0
1.14583 -0.190051 0
1.08921 -0.196444 0
1.33888 -0.352104 0
1.28361 -0.34923 0
1.22638 -0.335967 0
1.23754 -0.269184 0
1.18079 -0.266195 0
1.12485 -0.256979 0
1.08921 -0.196444 0
1.03774 -0.197664 0
0.985681 -0.193861 0
1.40167 -0.466894 0
1.33147 -0.428034 0
1.29574 -0.383033 0
1.30973 -0.395578 0
1.25842 -0.367788 0
1.21769 -0.334923 0
1.22638 -0.335967 0
1.18181 -0.315049 0
1.13761 -0.288314 0
1.29574 -0.383033 0
1.25437 -0.339108 0
1.23542 -0.293304 0
1.21769 -0.334923 0
1.1845 -0.298671 0
1.16255 -0.262036 0
1.13761 -0.288314 0
1.10496 -0.259334 0
1.07425 -0.228853 0
1.22638 -0.335967 0
1.18181 -0.315049 0
1.13761 -0.288314 0
1.12485 -0.256979 0
1.07716 -0.242665 0
1.03275 -0.224668 0
0.985681 -0.193861 0
0.94187 -0.185709 0
0.899801 -0.173959 0
1.13761 -0.288314 0
1.10496 -0.259334 0
1.07425 -0.228853 0
1.03275 -0.224668 0
0.996563 -0.204304 0
0.965148 -0.182135 0
0.899801 -0.173959 0
0.864701 -0.159511 0
0.832785 -0.142975 0
1.19906 -0.178592 0
1.14583 -0.190051 0
1.08921 -0.196444 0
1.04787 -0.125802 0
0.998964 -0.134133 0
0.946206 -0.138649 0
0.873398 -0.0676606 0
0.826468 -0.0737692 0
0.774912 -0.0774781 0
1.08921 -0.196444 0
1.03774 -0.197664 0
0.985681 -0.193861 0
0.946206 -0.138649 0
0.896765 -0.138814 0
0.845884 -0.135248 0
0.774912 -0.0774781 0
0.726375 -0.0785234 0
0.676182 -0.0772785 0
0.873398 -0.0676606 0
0.826468 -0.0737692 0
0.774912 -0.0774781 0
0.585087 -0.0215341 0
0.552431 -0.0238885 0
0.513137 -0.0252242 0
0 0 0
0 0 0
0 0 0
0.774912 -0.0774781 0
0.726375 -0.0785234 0
0.676182 -0.0772785 0
0.513137 -0.0252242 0
0.476228 -0.0257289 0
0.436366 -0.0250936 0
0 0 0
0 0 0
0 0 0
0.985681 -0.193861 0
0.94187 -0.185709 0
0.899801 -0.173959 0
0.845884 -0.135248 0
0.801158 -0.128619 0
0.75772 -0.119725 0
0.676182 -0.0772785 0
0.631743 -0.0743153 0
0.588507 -0.0699949 0
0.899801 -0.173959 0
0.864701 -0.159511 0
0.832785 -0.142975 0
0.75772 -0.119725 0
0.720228 -0.109507 0
0.686153 -0.0979423 0
0.588507 -0.0699949 0
0.550964 -0.0647522 0
0.516634 -0.0584437 0
0.676182 -0.0772785 0
0.631743 -0.0743153 0
0.588507 -0.0699949 0
0.436366 -0.0250936 0
0.400645 -0.0239776 0
0.365769 -0.0221798 0
0 0 0
0 0 0
0 0 0
0.588507 -0.0699949 0
0.550964 -0.0647522 0
0.516634 -0.0584437 0
0.365769 -0.0221798 0
0.334498 -0.0202545 0
0.306666 -0.0178769 0
0 0 0
0 0 0
0 0 0
1.24293 -0.0150862 0
1.31653 -0.00817012 0
1.37474 -0.00287925 0
1.25474 -0.0939644 0
1.3204 -0.0681623 0
1.37599 -0.0472407 0
1.24887 -0.156846 0
1.30866 -0.117184 0
1.3614 -0.0856899 0
1.37474 -0.00287925 0
1.41714 0.000353354 0
1.44863 0.00245826 0
1.37599 -0.0472407 0
1.41464 -0.0333913 0
1.44564 -0.0225765 0
1.3614 -0.0856899 0
1.39725 -0.0631572 0
1.42773 -0.0448373 0
1.24887 -0.156846 0
1.30866 -0.117184 0
1.3614 -0.0856899 0
1.26466 -0.229913 0
1.31202 -0.173346 0
1.35434 -0.128593 0
1.2788 -0.262693 0
1.30888 -0.201558 0
1.33715 -0.151778 0
1.3614 -0.0856899 0
1.39725 -0.0631572 0
1.42773 -0.0448373 0
1.35434 -0.128593 0
1.38308 -0.0964512 0
1.40835 -0.069768 0
1.33715 -0.151778 0
1.35776 -0.115364 0
1.37693 -0.0837458 0
1.44863 0.00245826 0
1.47207 0.00327942 0
1.48677 0.00331864 0
1.44564 -0.0225765 0
1.4672 -0.0149618 0
1.48214 -0.00842312 0
1.42773 -0.0448373 0
1.44847 -0.0305796 0
1.46445 -0.0183515 0
1.48677 0.00331864 0
1.49734 0.0021804 0
1.5 0 0
1.48214 -0.00842312 0
1.4911 -0.00338875 0
1.49414 0 0
1.46445 -0.0183515 0
1.47291 -0.00836671 0
1.47656 0 0
1.42773 -0.0448373 0
1.44847 -0.0305796 0
1.46445 -0.0183515 0
1.40835 -0.069768 0
1.42494 -0.0489804 0
1.43846 -0.0305925 0
1.37693 -0.0837458 0
1.38929 -0.0588392 0
1.40007 -0.036491 0
1.46445 -0.0183515 0
1.47291 -0.00836671 0
1.47656 0 0
1.43846 -0.0305925 0
1.44441 -0.014858 0
1.44727 0 0
1.40007 -0.036491 0
1.40415 -0.0177971 0
1.40625 0 0
1.2788 -0.262693 0
1.30888 -0.201558 0
1.33715 -0.151778 0
1.27681 -0.298481 0
1.29666 -0.234097 0
1.31138 -0.179061 0
1.27895 -0.306325 0
1.28227 -0.243011 0
1.28236 -0.187579 0
1.33715 -0.151778 0
1.35776 -0.115364 0
1.37693 -0.0837458 0
1.31138 -0.179061 0
1.32619 -0.138741 0
1.33731 -0.10144 0
1.28236 -0.187579 0
1.28705 -0.145361 0
1.28975 -0.106396 0
1.27895 -0.306325 0
1.28227 -0.243011 0
1.28236 -0.187579 0
1.25467 -0.305152 0
1.25026 -0.249869 0
1.23588 -0.193895 0
1.23542 -0.293304 0
1.20855 -0.239859 0
1.1902 -0.188325 0
1.28236 -0.187579 0
1.28705 -0.145361 0
1.28975 -0.106396 0
1.23588 -0.193895 0
1.23521 -0.153303 0
1.22805 -0.112765 0
1.1902 -0.188325 0
1.17392 -0.148568 0
1.16248 -0.11019 0
1.37693 -0.0837458 0
1.38929 -0.0588392 0
1.40007 -0.036491 0
1.33731 -0.10144 0
1.34561 -0.0724304 0
1.351 -0.0457717 0
1.28975 -0.106396 0
1.29154 -0.076208 0
1.29163 -0.0475034 0
1.40007 -0.036491 0
1.40415 -0.0177971 0
1.40625 0 0
1.351 -0.0457717 0
1.35358 -0.0235492 0
1.35352 0 0
1.29163 -0.0475034 0
1.29113 -0.0236548 0
1.28906 0 0
1.28975 -0.106396 0
1.29154 -0.076208 0
1.29163 -0.0475034 0
1.22805 -0.112765 0
1.22681 -0.083001 0
1.22073 -0.0516087 0
1.16248 -0.11019 0
1.15095 -0.080053 0
1.14197 -0.0497136 0
1.29163 -0.0475034 0
1.29113 -0.0236548 0
1.28906 0 0
1.22073 -0.0516087 0
1.21859 -0.0263029 0
1.21289 0 0
1.14197 -0.0497136 0
1.13282 -0.0248832 0
1.125 0 0
2.22634 -0.0428583 0
2.17764 -0.148777 0
2.17399 -0.230727 0
2.14564 0.0206768 0
2.10454 -0.0686037 0
2.03972 -0.146961 0
1.91938 0.0646077 0
1.88335 -0.0164414 0
1.85673 -0.0869811 0
2.17399 -0.230727 0
2.08028 -0.296869 0
2.05112 -0.347164 0
2.03972 -0.146961 0
1.98552 -0.212121 0
1.91746 -0.272894 0
1.85673 -0.0869811 0
1.79976 -0.148937 0
1.74458 -0.202572 0
1.91938 0.0646077 0
1.88335 -0.0164414 0
1.85673 -0.0869811 0
1.73863 0.0501171 0
1.72139 -0.00897993 0
1.69285 -0.0641335 0
1.56737 0.0664362 0
1.54938 0.0182805 0
1.52584 -0.0258754 0
1.85673 -0.0869811 0
1.79976 -0.148937 0
1.74458 -0.202572 0
1.69285 -0.0641335 0
1.65329 -0.112642 0
1.60555 -0.155287 0
1.52584 -0.0258754 0
1.48843 -0.0648862 0
1.44464 -0.0992516 0
2.05112 -0.347164 0
1.95382 -0.400931 0
1.93142 -0.445807 0
1.91746 -0.272894 0
1.84106 -0.32187 0
1.75451 -0.359299 0
1.74458 -0.202572 0
1.67763 -0.247427 0
1.61429 -0.284439 0
1.93142 -0.445807 0
1.78487 -0.463898 0
1.72063 -0.489991 0
1.75451 -0.359299 0
1.67054 -0.386807 0
1.58371 -0.402528 0
1.61429 -0.284439 0
1.53723 -0.30707 0
1.45999 -0.324059 0
1.74458 -0.202572 0
1.67763 -0.247427 0
1.61429 -0.284439 0
1.60555 -0.155287 0
1.55066 -0.189903 0
1.48868 -0.218242 0
1.44464 -0.0992516 0
1.39118 -0.127576 0
1.33237 -0.151437 0
1.61429 -0.284439 0
1.53723 -0.30707 0
1.45999 -0.324059 0
1.48868 -0.218242 0
1.42215 -0.23883 0
1.35207 -0.251925 0
1.33237 -0.151437 0
1.26928 -0.167878 0
1.19906 -0.178592 0
1.56737 0.0664362 0
1.54938 0.0182805 0
1.52584 -0.0258754 0
1.36009 0.0608164 0
1.35139 0.0265995 0
1.33288 -0.00629061 0
1.11315 0.0588961 0
1.11594 0.0366568 0
1.10921 0.0150797 0
1.52584 -0.0258754 0
1.48843 -0.0648862 0
1.44464 -0.0992516 0
1.33288 -0.00629061 0
1.30343 -0.0362383 0
1.26512 -0.0631913 0
1.10921 0.0150797 0
1.08946 -0.00507248 0
1.06067 -0.0234087 0
1.11315 0.0588961 0
1.11594 0.0366568 0
1.10921 0.0150797 0
0.694172 0.0216572 0
0.714377 0.0148029 0
0.725562 0.00777008 0
0 0 0
0 0 0
0 0 0
1.10921 0.0150797 0
1.08946 -0.00507248 0
1.06067 -0.0234087 0
0.725562 0.00777008 0
0.724359 0.00116101 0
0.713087 -0.00508742 0
0 0 0
0 0 0
0 0 0
1.44464 -0.0992516 0
1.39118 -0.127576 0
1.33237 -0.151437 0
1.26512 -0.0631913 0
1.21946 -0.0854799 0
1.16619 -0.10368 0
1.06067 -0.0234087 0
1.02301 -0.038831 0
0.977739 -0.0518391 0
1.33237 -0.151437 0
1.26928 -0.167878 0
1.19906 -0.178592 0
1.16619 -0.10368 0
1.10964 -0.116566 0
1.04787 -0.125802 0
0.977739 -0.0518391 0
0.928774 -0.0612467 0
0.873398 -0.0676606 0
1.06067 -0.0234087 0
1.02301 -0.038831 0
0.977739 -0.0518391 0
0.713087 -0.00508742 0
0.692888 -0.0102677 0
0.662613 -0.015113 0
0 0 0
0 0 0
0 0 0
0.977739 -0.0518391 0
0.928774 -0.0612467 0
0.873398 -0.0676606 0
0.662613 -0.015113 0
0.628196 -0.0187955 0
0.585087 -0.0215341 0
0 0 0
0 0 0
0 0 0
1.56787 0.569536 0
1.75047 0.601497 0
1.90266 0.59275 0
1.41628 0.470437 0
1.53218 0.49805 0
1.6644 0.50815 0
1.38648 0.398165 0
1.44788 0.404735 0
1.51111 0.398051 0
1.90266 0.59275 0
2.01272 0.541585 0
2.11796 0.463166 0
1.6644 0.50815 0
1.81325 0.495433 0
1.94732 0.449469 0
1.51111 0.398051 0
1.57086 0.378144 0
1.64861 0.347288 0
1.38648 0.398165 0
1.44788 0.404735 0
1.51111 0.398051 0
1.23947 0.322124 0
1.34462 0.341005 0
1.44399 0.342622 0
1.04479 0.230723 0
1.13221 0.248297 0
1.22414 0.257742 0
1.51111 0.398051 0
1.57086 0.378144 0
1.64861 0.347288 0
1.44399 0.342622 0
1.52257 0.323938 0
1.59403 0.289949 0
1.22414 0.257742 0
1.31247 0.255191 0
1.39699 0.240805 0
2.11796 0.463166 0
2.17493 0.351122 0
2.21655 0.220195 0
1.94732 0.449469 0
2.0404 0.372731 0
2.12546 0.269673 0
1.64861 0.347288 0
1.74461 0.302054 0
1.8266 0.236025 0
2.21655 0.220195 0
2.24171 0.0877741 0
2.22634 -0.0428583 0
2.12546 0.269673 0
2.14196 0.147288 0
2.14564 0.0206768 0
1.8266 0.236025 0
1.87806 0.153425 0
1.91938 0.0646077 0
1.64861 0.347288 0
1.74461 0.302054 0
1.8266 0.236025 0
1.59403 0.289949 0
1.64674 0.241069 0
1.69229 0.182039 0
1.39699 0.240805 0
1.46263 0.211546 0
1.51889 0.170821 0
1.8266 0.236025 0
1.87806 0.153425 0
1.91938 0.0646077 0
1.69229 0.182039 0
1.72053 0.117599 0
1.73863 0.0501171 0
1.51889 0.170821 0
1.54907 0.120461 0
1.56737 0.0664362 0
1.04479 0.230723 0
1.13221 0.248297 0
1.22414 0.257742 0
0.824887 0.151863 0
0.923242 0.168902 0
1.01978 0.178948 0
0.531412 0.0747515 0
0.614196 0.0890951 0
0.702568 0.101181 0
1.22414 0.257742 0
1.31247 0.255191 0
1.39699 0.240805 0
1.01978 0.178948 0
1.10671 0.178816 0
1.18508 0.169791 0
0.702568 0.101181 0
0.796914 0.109506 0
0.887257 0.112311 0
0.531412 0.0747515 0
0.614196 0.0890951 0
0.702568 0.101181 0
0.255007 0.0196055 0
0.304437 0.0230777 0
0.354869 0.0259641 0
0 0 0
0 0 0
0 0 0
0.702568 0.101181 0
0.796914 0.109506 0
0.887257 0.112311 0
0.354869 0.0259641 0
0.412883 0.0283665 0
0.473557 0.030295 0
0 0 0
0 0 0
0 0 0
1.39699 0.240805 0
1.46263 0.211546 0
1.51889 0.170821 0
1.18508 0.169791 0
1.24865 0.152083 0
1.30199 0.127205 0
0.887257 0.112311 0
0.966385 0.107804 0
1.03293 0.0967277 0
1.51889 0.170821 0
1.54907 0.120461 0
1.56737 0.0664362 0
1.30199 0.127205 0
1.33691 0.0959707 0
1.36009 0.0608164 0
1.03293 0.0967277 0
1.08005 0.079689 0
1.11315 0.0588961 0
0.887257 0.112311 0
0.966385 0.107804 0
1.03293 0.0967277 0
0.473557 0.030295 0
0.534647 0.0312711 0
0.595132 0.0300194 0
0 0 0
0 0 0
0 0 0
1.03293 0.0967277 0
1.08005 0.079689 0
1.11315 0.0588961 0
0.595132 0.0300194 0
0.647602 0.0265052 0
0.694172 0.0216572 0
0 0 0
0 0 0
0 0 0
-0.0124332 0.363682 0
-0.348224 0.360452 0
-0.511631 0.319071 0
0.325439 0.584219 0
0.0597683 0.561159 0
-0.0680836 0.454135 0
0.750108 0.816549 0
0.543345 0.770141 0
0.425337 0.680094 0
-0.511631 0.319071 0
-0.716699 0.20717 0
-0.904968 0.101682 0
-0.0680836 0.454135 0
-0.330677 0.319238 0
-0.48872 0.172829 0
0.425337 0.680094 0
0.194468 0.539659 0
0.094303 0.350922 0
0.750108 0.816549 0
0.543345 0.770141 0
0.425337 0.680094 0
1.13792 0.902057 0
0.99478 0.852811 0
0.894771 0.757425 0
1.45334 0.946448 0
1.4241 0.940432 0
1.36335 0.865548 0
0.425337 0.680094 0
0.194468 0.539659 0
0.094303 0.350922 0
0.894771 0.757425 0
0.704024 0.607171 0
0.595445 0.411372 0
1.36335 0.865548 0
1.22349 0.727422 0
1.10116 0.523743 0
-0.904968 0.101682 0
-1.02754 0.00480715 0
-1.12879 -0.0865052 0
-0.48872 0.172829 0
-0.608429 0.0113078 0
-0.732371 -0.128752 0
0.094303 0.350922 0
-0.105512 0.1669 0
-0.240051 -0.00591876 0
-1.12879 -0.0865052 0
-1.16075 -0.165035 0
-1.1781 -0.221887 0
-0.732371 -0.128752 0
-0.774656 -0.255006 0
-0.814448 -0.350093 0
-0.240051 -0.00591876 0
-0.30934 -0.186702 0
-0.421838 -0.341011 0
0.094303 0.350922 0
-0.105512 0.1669 0
-0.240051 -0.00591876 0
0.595445 0.411372 0
0.419042 0.212691 0
0.34388 0.0288334 0
1.10116 0.523743 0
0.944174 0.300615 0
0.837553 0.0713736 0
-0.240051 -0.00591876 0
-0.30934 -0.186702 0
-0.421838 -0.341011 0
0.34388 0.0288334 0
0.215759 -0.115987 0
0.0780932 -0.294661 0
0.837553 0.0713736 0
0.708948 -0.116886 0
0.632921 -0.316016 0
1.45334 0.946448 0
1.4241 0.940432 0
1.36335 0.865548 0
1.55858 0.870742 0
1.65347 0.915252 0
1.69472 0.87599 0
1.62206 0.784348 0
1.73579 0.841435 0
1.85459 0.843715 0
1.36335 0.865548 0
1.22349 0.727422 0
1.10116 0.523743 0
1.69472 0.87599 0
1.64703 0.769477 0
1.56556 0.599509 0
1.85459 0.843715 0
1.93498 0.784332 0
1.95913 0.650297 0
1.62206 0.784348 0
1.73579 0.841435 0
1.85459 0.843715 0
1.66027 0.686413 0
1.76427 0.720382 0
1.87826 0.725999 0
1.56787 0.569536 0
1.75047 0.601497 0
1.90266 0.59275 0
1.85459 0.843715 0
1.93498 0.784332 0
1.95913 0.650297 0
1.87826 0.725999 0
1.97583 0.692879 0
2.0611 0.608857 0
1.90266 0.59275 0
2.01272 0.541585 0
2.11796 0.463166 0
1.10116 0.523743 0
0.944174 0.300615 0
0.837553 0.0713736 0
1.56556 0.599509 0
1.42921 0.39942 0
1.30868 0.172473 0
1.95913 0.650297 0
1.86378 0.474332 0
1.76211 0.277692 0
0.837553 0.0713736 0
0.708948 -0.116886 0
0.632921 -0.316016 0
1.30868 0.172473 0
1.16129 -0.026139 0
1.03348 -0.21163 0
1.76211 0.277692 0
1.55711 0.088457 0
1.36602 -0.0886208 0
1.95913 0.650297 0
1.86378 0.474332 0
1.76211 0.277692 0
2.0611 0.608857 0
2.10179 0.477201 0
2.10439 0.311503 0
2.11796 0.463166 0
2.17493 0.351122 0
2.21655 0.220195 0
1.76211 0.277692 0
1.55711 0.088457 0
1.36602 -0.0886208 0
2.10439 0.311503 0
2.03227 0.140128 0
1.95764 -0.0211024 0
2.21655 0.220195 0
2.24171 0.0877741 0
2.22634 -0.0428583 0
1.77116 -0.432564 0
1.86785 -0.433952 0
1.95015 -0.415329 0
1.74 -0.486072 0
1.76883 -0.496506 0
1.79425 -0.487019 0
1.60547 -0.546887 0
1.63053 -0.5724 0
1.65187 -0.566831 0
1.95015 -0.415329 0
1.9979 -0.371636 0
2.03552 -0.309486 0
1.79425 -0.487019 0
1.82434 -0.461636 0
1.85604 -0.410875 0
1.65187 -0.566831 0
1.65559 -0.532346 0
1.63683 -0.458705 0
1.60547 -0.546887 0
1.63053 -0.5724 0
1.65187 -0.566831 0
1.43294 -0.510839 0
1.38115 -0.51734 0
1.31161 -0.491821 0
1.06808 -0.458345 0
0.902958 -0.455722 0
0.751146 -0.433633 0
1.65187 -0.566831 0
1.65559 -0.532346 0
1.63683 -0.458705 0
1.31161 -0.491821 0
1.20012 -0.441697 0
1.08968 -0.358844 0
0.751146 -0.433633 0
0.582482 -0.395246 0
0.478772 -0.332092 0
2.03552 -0.309486 0
2.06793 -0.23473 0
2.09096 -0.147408 0
1.85604 -0.410875 0
1.86878 -0.337039 0
1.88163 -0.243051 0
1.63683 -0.458705 0
1.55679 -0.360502 0
1.46477 -0.242157 0
2.09096 -0.147408 0
2.11276 -0.0590102 0
2.13279 0.0311643 0
1.88163 -0.243051 0
1.85383 -0.134684 0
1.83376 -0.0183928 0
1.46477 -0.242157 0
1.33784 -0.129396 0
1.22067 -0.0170491 0
1.63683 -0.458705 0
1.55679 -0.360502 0
1.46477 -0.242157 0
1.08968 -0.358844 0
0.95709 -0.266357 0
0.866036 -0.166602 0
0.478772 -0.332092 0
0.356535 -0.267716 0
0.327618 -0.190912 0
1.46477 -0.242157 0
1.33784 -0.129396 0
1.22067 -0.0170491 0
0.866036 -0.166602 0
0.780696 -0.0770001 0
0.738299 0.0127479 0
0.327618 -0.190912 0
0.27358 -0.106186 0
0.248425 -0.0166952 0
1.06808 -0.458345 0
0.902958 -0.455722 0
0.751146 -0.433633 0
0.500325 -0.279396 0
0.262285 -0.287137 0
0.111824 -0.269597 0
-0.00670735 -0.112082 0
-0.331254 -0.142036 0
-0.495857 -0.180825 0
0.751146 -0.433633 0
0.582482 -0.395246 0
0.478772 -0.332092 0
0.111824 -0.269597 0
-0.0986656 -0.250727 0
-0.187039 -0.217775 0
-0.495857 -0.180825 0
-0.677184 -0.197904 0
-0.799651 -0.219609 0
-0.00670735 -0.112082 0
-0.331254 -0.142036 0
-0.495857 -0.180825 0
-0.209445 0.156643 0
-0.5599 0.120687 0
-0.801097 0.0782623 0
-0.0124332 0.363682 0
-0.348224 0.360452 0
-0.511631 0.319071 0
-0.495857 -0.180825 0
-0.677184 -0.197904 0
-0.799651 -0.219609 0
-0.801097 0.0782623 0
-0.999942 0.00599917 0
-1.15233 -0.0842699 0
-0.511631 0.319071 0
-0.716699 0.20717 0
-0.904968 0.101682 0
0.478772 -0.332092 0
0.356535 -0.267716 0
0.327618 -0.190912 0
-0.187039 -0.217775 0
-0.279956 -0.181358 0
-0.314851 -0.154425 0
-0.799651 -0.219609 0
-0.835507 -0.227979 0
-0.843561 -0.229713 0
0.327618 -0.190912 0
0.27358 -0.106186 0
0.248425 -0.0166952 0
-0.314851 -0.154425 0
-0.277274 -0.107925 0
-0.258323 -0.0532871 0
-0.843561 -0.229713 0
-0.772368 -0.219109 0
-0.691149 -0.189976 0
-0.799651 -0.219609 0
-0.835507 -0.227979 0
-0.843561 -0.229713 0
-1.15233 -0.0842699 0
-1.24499 -0.163482 0
-1.30609 -0.226016 0
-0.904968 0.101682 0
-1.02754 0.00480715 0
-1.12879 -0.0865052 0
-0.843561 -0.229713 0
-0.772368 -0.219109 0
-0.691149 -0.189976 0
-1.30609 -0.226016 0
-1.28524 -0.260332 0
-1.23867 -0.271892 0
-1.12879 -0.0865052 0
-1.16075 -0.165035 0
-1.1781 -0.221887 0
0 0 0
0 0 0
0 0 0
0.341681 -0.0196179 0
0.382638 -0.0223117 0
0.427946 -0.0245707 0
0.686234 -0.0725675 0
0.75356 -0.081944 0
0.823081 -0.0885545 0
0 0 0
0 0 0
0 0 0
0.427946 -0.0245707 0
0.475019 -0.0261025 0
0.524392 -0.0267173 0
0.823081 -0.0885545 0