# vtk DataFile Version 3.0
#This file was generated by the deal.II library on 2025/1/4 at 10:05:12
ASCII
DATASET UNSTRUCTURED_GRID

POINTS 8640 double
1.1 1.1 0
0.9625 1.09063 0
0.825 1.08125 0
1.0875 0.9625 0
0.951563 0.954297 0
0.815625 0.946094 0
1.075 0.825 0
0.940625 0.817969 0
0.80625 0.810937 0
0.825 1.08125 0
0.6875 1.07187 0
0.55 1.0625 0
0.815625 0.946094 0
0.679688 0.937891 0
0.54375 0.929688 0
0.80625 0.810937 0
0.671875 0.803906 0
0.5375 0.796875 0
1.075 0.825 0
0.940625 0.817969 0
0.80625 0.810937 0
1.0625 0.6875 0
0.929688 0.681641 0
0.796875 0.675781 0
1.05 0.55 0
0.91875 0.545313 0
0.7875 0.540625 0
0.80625 0.810937 0
0.671875 0.803906 0
0.5375 0.796875 0
0.796875 0.675781 0
0.664062 0.669922 0
0.53125 0.664062 0
0.7875 0.540625 0
0.65625 0.535937 0
0.525 0.53125 0
0.55 1.0625 0
0.4125 1.05313 0
0.275 1.04375 0
0.54375 0.929688 0
0.407813 0.921484 0
0.271875 0.913281 0
0.5375 0.796875 0
0.403125 0.789844 0
0.26875 0.782813 0
0.275 1.04375 0
0.1375 1.03437 0
0 1.025 0
0.271875 0.913281 0
0.135938 0.905078 0
0 0.896875 0
0.26875 0.782813 0
0.134375 0.775781 0
0 0.76875 0
0.5375 0.796875 0
0.403125 0.789844 0
0.26875 0.782813 0
0.53125 0.664062 0
0.398438 0.658203 0
0.265625 0.652344 0
0.525 0.53125 0
0.39375 0.526563 0
0.2625 0.521875 0
0.26875 0.782813 0
0.134375 0.775781 0
0 0.76875 0
0.265625 0.652344 0
0.132812 0.646484 0
0 0.640625 0
0.2625 0.521875 0
0.13125 0.517187 0
0 0.5125 0
1.05 0.55 0
0.91875 0.545313 0
0.7875 0.540625 0
1.0375 0.4125 0
0.907812 0.408984 0
0.778125 0.405469 0
1.025 0.275 0
0.896875 0.272656 0
0.76875 0.270313 0
0.7875 0.540625 0
0.65625 0.535937 0
0.525 0.53125 0
0.778125 0.405469 0
0.648438 0.401953 0
0.51875 0.398438 0
0.76875 0.270313 0
0.640625 0.267969 0
0.5125 0.265625 0
1.025 0.275 0
0.896875 0.272656 0
0.76875 0.270313 0
1.0125 0.1375 0
0.885937 0.136328 0
0.759375 0.135156 0
1 0 0
0.875 0 0
0.75 0 0
0.76875 0.270313 0
0.640625 0.267969 0
0.5125 0.265625 0
0.759375 0.135156 0
0.632812 0.133984 0
0.50625 0.132812 0
0.75 0 0
0.625 0 0
0.5 0 0
0.525 0.53125 0
0.39375 0.526563 0
0.2625 0.521875 0
0.51875 0.398438 0
0.389062 0.394922 0
0.259375 0.391406 0
0.5125 0.265625 0
0.384375 0.263281 0
0.25625 0.260937 0
0.2625 0.521875 0
0.13125 0.517187 0
0 0.5125 0
0.259375 0.391406 0
0.129688 0.387891 0
0 0.384375 0
0.25625 0.260937 0
0.128125 0.258594 0
0 0.25625 0
0.5125 0.265625 0
0.384375 0.263281 0
0.25625 0.260937 0
0.50625 0.132812 0
0.379687 0.131641 0
0.253125 0.130469 0
0.5 0 0
0.375 0 0
0.25 0 0
0.25625 0.260937 0
0.128125 0.258594 0
0 0.25625 0
0.253125 0.130469 0
0.126562 0.129297 0
0 0.128125 0
0.25 0 0
0.125 0 0
0 0 0
2 1 0
1.8875 1.0125 0
1.775 1.025 0
2 0.875 0
1.88594 0.885938 0
1.77188 0.896875 0
2 0.75 0
1.88437 0.759375 0
1.76875 0.76875 0
1.775 1.025 0
1.6625 1.0375 0
1.55 1.05 0
1.77188 0.896875 0
1.65781 0.907813 0
1.54375 0.91875 0
1.76875 0.76875 0
1.65313 0.778125 0
1.5375 0.7875 0
2 0.75 0
1.88437 0.759375 0
1.76875 0.76875 0
2 0.625 0
1.88281 0.632812 0
1.76562 0.640625 0
2 0.5 0
1.88125 0.50625 0
1.7625 0.5125 0
1.76875 0.76875 0
1.65313 0.778125 0
1.5375 0.7875 0
1.76562 0.640625 0
1.64844 0.648438 0
1.53125 0.65625 0
1.7625 0.5125 0
1.64375 0.51875 0
1.525 0.525 0
1.55 1.05 0
1.4375 1.0625 0
1.325 1.075 0
1.54375 0.91875 0
1.42969 0.929688 0
1.31563 0.940625 0
1.5375 0.7875 0
1.42188 0.796875 0
1.30625 0.80625 0
1.325 1.075 0
1.2125 1.0875 0
1.1 1.1 0
1.31563 0.940625 0
1.20156 0.951563 0
1.0875 0.9625 0
1.30625 0.80625 0
1.19063 0.815625 0
1.075 0.825 0
1.5375 0.7875 0
1.42188 0.796875 0
1.30625 0.80625 0
1.53125 0.65625 0
1.41406 0.664062 0
1.29688 0.671875 0
1.525 0.525 0
1.40625 0.53125 0
1.2875 0.5375 0
1.30625 0.80625 0
1.19063 0.815625 0
1.075 0.825 0
1.29688 0.671875 0
1.17969 0.679688 0
1.0625 0.6875 0
1.2875 0.5375 0
1.16875 0.54375 0
1.05 0.55 0
2 0.5 0
1.88125 0.50625 0
1.7625 0.5125 0
2 0.375 0
1.87969 0.379687 0
1.75938 0.384375 0
2 0.25 0
1.87813 0.253125 0
1.75625 0.25625 0
1.7625 0.5125 0
1.64375 0.51875 0
1.525 0.525 0
1.75938 0.384375 0
1.63906 0.389063 0
1.51875 0.39375 0
1.75625 0.25625 0
1.63438 0.259375 0
1.5125 0.2625 0
2 0.25 0
1.87813 0.253125 0
1.75625 0.25625 0
2 0.125 0
1.87656 0.126562 0
1.75313 0.128125 0
2 0 0
1.875 0 0
1.75 0 0
1.75625 0.25625 0
1.63438 0.259375 0
1.5125 0.2625 0
1.75313 0.128125 0
1.62969 0.129688 0
1.50625 0.13125 0
1.75 0 0
1.625 0 0
1.5 0 0
1.525 0.525 0
1.40625 0.53125 0
1.2875 0.5375 0
1.51875 0.39375 0
1.39844 0.398438 0
1.27813 0.403125 0
1.5125 0.2625 0
1.39062 0.265625 0
1.26875 0.26875 0
1.2875 0.5375 0
1.16875 0.54375 0
1.05 0.55 0
1.27813 0.403125 0
1.15781 0.407813 0
1.0375 0.4125 0
1.26875 0.26875 0
1.14688 0.271875 0
1.025 0.275 0
1.5125 0.2625 0
1.39062 0.265625 0
1.26875 0.26875 0
1.50625 0.13125 0
1.38281 0.132812 0
1.25937 0.134375 0
1.5 0 0
1.375 0 0
1.25 0 0
1.26875 0.26875 0
1.14688 0.271875 0
1.025 0.275 0
1.25937 0.134375 0
1.13594 0.135938 0
1.0125 0.1375 0
1.25 0 0
1.125 0 0
1 0 0
1 2 0
0.875 2.00625 0
0.75 2.0125 0
1.0125 1.8875 0
0.885938 1.8918 0
0.759375 1.89609 0
1.025 1.775 0
0.896875 1.77734 0
0.76875 1.77969 0
0.75 2.0125 0
0.625 2.01875 0
0.5 2.025 0
0.759375 1.89609 0
0.632812 1.90039 0
0.50625 1.90469 0
0.76875 1.77969 0
0.640625 1.78203 0
0.5125 1.78437 0
1.025 1.775 0
0.896875 1.77734 0
0.76875 1.77969 0
1.0375 1.6625 0
0.907813 1.66289 0
0.778125 1.66328 0
1.05 1.55 0
0.91875 1.54844 0
0.7875 1.54688 0
0.76875 1.77969 0
0.640625 1.78203 0
0.5125 1.78437 0
0.778125 1.66328 0
0.648438 1.66367 0
0.51875 1.66406 0
0.7875 1.54688 0
0.65625 1.54531 0
0.525 1.54375 0
0.5 2.025 0
0.375 2.03125 0
0.25 2.0375 0
0.50625 1.90469 0
0.379687 1.90898 0
0.253125 1.91328 0
0.5125 1.78437 0
0.384375 1.78672 0
0.25625 1.78906 0
0.25 2.0375 0
0.125 2.04375 0
0 2.05 0
0.253125 1.91328 0
0.126562 1.91758 0
0 1.92187 0
0.25625 1.78906 0
0.128125 1.79141 0
0 1.79375 0
0.5125 1.78437 0
0.384375 1.78672 0
0.25625 1.78906 0
0.51875 1.66406 0
0.389062 1.66445 0
0.259375 1.66484 0
0.525 1.54375 0
0.39375 1.54219 0
0.2625 1.54062 0
0.25625 1.78906 0
0.128125 1.79141 0
0 1.79375 0
0.259375 1.66484 0
0.129688 1.66523 0
0 1.66562 0
0.2625 1.54062 0
0.13125 1.53906 0
0 1.5375 0
1.05 1.55 0
0.91875 1.54844 0
0.7875 1.54688 0
1.0625 1.4375 0
0.929688 1.43398 0
0.796875 1.43047 0
1.075 1.325 0
0.940625 1.31953 0
0.80625 1.31406 0
0.7875 1.54688 0
0.65625 1.54531 0
0.525 1.54375 0
0.796875 1.43047 0
0.664062 1.42695 0
0.53125 1.42344 0
0.80625 1.31406 0
0.671875 1.30859 0
0.5375 1.30312 0
1.075 1.325 0
0.940625 1.31953 0
0.80625 1.31406 0
1.0875 1.2125 0
0.951563 1.20508 0
0.815625 1.19766 0
1.1 1.1 0
0.9625 1.09063 0
0.825 1.08125 0
0.80625 1.31406 0
0.671875 1.30859 0
0.5375 1.30312 0
0.815625 1.19766 0
0.679688 1.19023 0
0.54375 1.18281 0
0.825 1.08125 0
0.6875 1.07187 0
0.55 1.0625 0
0.525 1.54375 0
0.39375 1.54219 0
0.2625 1.54062 0
0.53125 1.42344 0
0.398438 1.41992 0
0.265625 1.41641 0
0.5375 1.30312 0
0.403125 1.29766 0
0.26875 1.29219 0
0.2625 1.54062 0
0.13125 1.53906 0
0 1.5375 0
0.265625 1.41641 0
0.132812 1.41289 0
0 1.40937 0
0.26875 1.29219 0
0.134375 1.28672 0
0 1.28125 0
0.5375 1.30312 0
0.403125 1.29766 0
0.26875 1.29219 0
0.54375 1.18281 0
0.407813 1.17539 0
0.271875 1.16797 0
0.55 1.0625 0
0.4125 1.05313 0
0.275 1.04375 0
0.26875 1.29219 0
0.134375 1.28672 0
0 1.28125 0
0.271875 1.16797 0
0.135938 1.16055 0
0 1.15312 0
0.275 1.04375 0
0.1375 1.03437 0
0 1.025 0
2.9 1.1 0
2.7875 1.0875 0
2.675 1.075 0
2.9125 0.9625 0
2.79844 0.951563 0
2.68438 0.940625 0
2.925 0.825 0
2.80938 0.815625 0
2.69375 0.80625 0
2.675 1.075 0
2.5625 1.0625 0
2.45 1.05 0
2.68438 0.940625 0
2.57031 0.929688 0
2.45625 0.91875 0
2.69375 0.80625 0
2.57812 0.796875 0
2.4625 0.7875 0
2.925 0.825 0
2.80938 0.815625 0
2.69375 0.80625 0
2.9375 0.6875 0
2.82031 0.679688 0
2.70312 0.671875 0
2.95 0.55 0
2.83125 0.54375 0
2.7125 0.5375 0
2.69375 0.80625 0
2.57812 0.796875 0
2.4625 0.7875 0
2.70312 0.671875 0
2.58594 0.664062 0
2.46875 0.65625 0
2.7125 0.5375 0
2.59375 0.53125 0
2.475 0.525 0
2.45 1.05 0
2.3375 1.0375 0
2.225 1.025 0
2.45625 0.91875 0
2.34219 0.907813 0
2.22813 0.896875 0
2.4625 0.7875 0
2.34688 0.778125 0
2.23125 0.76875 0
2.225 1.025 0
2.1125 1.0125 0
2 1 0
2.22813 0.896875 0
2.11406 0.885938 0
2 0.875 0
2.23125 0.76875 0
2.11563 0.759375 0
2 0.75 0
2.4625 0.7875 0
2.34688 0.778125 0
2.23125 0.76875 0
2.46875 0.65625 0
2.35156 0.648438 0
2.23438 0.640625 0
2.475 0.525 0
2.35625 0.51875 0
2.2375 0.5125 0
2.23125 0.76875 0
2.11563 0.759375 0
2 0.75 0
2.23438 0.640625 0
2.11719 0.632812 0
2 0.625 0
2.2375 0.5125 0
2.11875 0.50625 0
2 0.5 0
2.95 0.55 0
2.83125 0.54375 0
2.7125 0.5375 0
2.9625 0.4125 0
2.84219 0.407813 0
2.72188 0.403125 0
2.975 0.275 0
2.85313 0.271875 0
2.73125 0.26875 0
2.7125 0.5375 0
2.59375 0.53125 0
2.475 0.525 0
2.72188 0.403125 0
2.60156 0.398438 0
2.48125 0.39375 0
2.73125 0.26875 0
2.60938 0.265625 0
2.4875 0.2625 0
2.975 0.275 0
2.85313 0.271875 0
2.73125 0.26875 0
2.9875 0.1375 0
2.86406 0.135938 0
2.74063 0.134375 0
3 0 0
2.875 0 0
2.75 0 0
2.73125 0.26875 0
2.60938 0.265625 0
2.4875 0.2625 0
2.74063 0.134375 0
2.61719 0.132812 0
2.49375 0.13125 0
2.75 0 0
2.625 0 0
2.5 0 0
2.475 0.525 0
2.35625 0.51875 0
2.2375 0.5125 0
2.48125 0.39375 0
2.36094 0.389063 0
2.24062 0.384375 0
2.4875 0.2625 0
2.36562 0.259375 0
2.24375 0.25625 0
2.2375 0.5125 0
2.11875 0.50625 0
2 0.5 0
2.24062 0.384375 0
2.12031 0.379687 0
2 0.375 0
2.24375 0.25625 0
2.12188 0.253125 0
2 0.25 0
2.4875 0.2625 0
2.36562 0.259375 0
2.24375 0.25625 0
2.49375 0.13125 0
2.37031 0.129688 0
2.24688 0.128125 0
2.5 0 0
2.375 0 0
2.25 0 0
2.24375 0.25625 0
2.12188 0.253125 0
2 0.25 0
2.24688 0.128125 0
2.12344 0.126562 0
2 0.125 0
2.25 0 0
2.125 0 0
2 0 0
4 1 0
3.8625 1.0125 0
3.725 1.025 0
4 0.875 0
3.86406 0.885938 0
3.72813 0.896875 0
4 0.75 0
3.86563 0.759375 0
3.73125 0.76875 0
3.725 1.025 0
3.5875 1.0375 0
3.45 1.05 0
3.72813 0.896875 0
3.59219 0.907813 0
3.45625 0.91875 0
3.73125 0.76875 0
3.59688 0.778125 0
3.4625 0.7875 0
4 0.75 0
3.86563 0.759375 0
3.73125 0.76875 0
4 0.625 0
[...]
POINT_DATA 8640
VECTORS v double
1.26475 -0.323912 0
1.24291 -0.275792 0
1.20323 -0.221646 0
1.19484 -0.284598 0
1.15718 -0.242304 0
1.1223 -0.20194 0
1.10311 -0.244968 0
1.06286 -0.210884 0
1.02619 -0.176398 0
1.20323 -0.221646 0
1.19185 -0.181116 0
1.16765 -0.135424 0
1.1223 -0.20194 0
1.09848 -0.162389 0
1.0766 -0.126486 0
1.02619 -0.176398 0
0.996571 -0.142888 0
0.972527 -0.111711 0
1.10311 -0.244968 0
1.06286 -0.210884 0
1.02619 -0.176398 0
0.988662 -0.192278 0
0.94611 -0.167397 0
0.906566 -0.142112 0
0.85239 -0.149167 0
0.810794 -0.131594 0
0.772939 -0.113008 0
1.02619 -0.176398 0
0.996571 -0.142888 0
0.972527 -0.111711 0
0.906566 -0.142112 0
0.875411 -0.116619 0
0.848517 -0.0915505 0
0.772939 -0.113008 0
0.74119 -0.0932972 0
0.714556 -0.0737272 0
1.16765 -0.135424 0
1.15856 -0.101198 0
1.13993 -0.0629425 0
1.0766 -0.126486 0
1.05995 -0.0931641 0
1.04391 -0.0599147 0
0.972527 -0.111711 0
0.951167 -0.0812663 0
0.935616 -0.0523108 0
1.13993 -0.0629425 0
1.13568 -0.0324727 0
1.125 0 0
1.04391 -0.0599147 0
1.0345 -0.0287956 0
1.02539 0 0
0.935616 -0.0523108 0
0.922083 -0.0248052 0
0.914062 0 0
0.972527 -0.111711 0
0.951167 -0.0812663 0
0.935616 -0.0523108 0
0.848517 -0.0915505 0
0.827265 -0.0669043 0
0.81106 -0.043288 0
0.714556 -0.0737272 0
0.693017 -0.0542859 0
0.676831 -0.0354323 0
0.935616 -0.0523108 0
0.922083 -0.0248052 0
0.914062 0 0
0.81106 -0.043288 0
0.798609 -0.0209104 0
0.791016 0 0
0.676831 -0.0354323 0
0.66396 -0.0172768 0
0.65625 0 0
0.85239 -0.149167 0
0.810794 -0.131594 0
0.772939 -0.113008 0
0.704325 -0.102132 0
0.662955 -0.0901512 0
0.62489 -0.0773829 0
0.533903 -0.0600208 0
0.495209 -0.0536624 0
0.459476 -0.046854 0
0.772939 -0.113008 0
0.74119 -0.0932972 0
0.714556 -0.0737272 0
0.62489 -0.0773829 0
0.592623 -0.0640678 0
0.565573 -0.0505536 0
0.459476 -0.046854 0
0.428908 -0.0394991 0
0.403273 -0.0319719 0
0.533903 -0.0600208 0
0.495209 -0.0536624 0
0.459476 -0.046854 0
0.323146 -0.0188953 0
0.291995 -0.0165498 0
0.264479 -0.0142249 0
0 0 0
0 0 0
0 0 0
0.459476 -0.046854 0
0.428908 -0.0394991 0
0.403273 -0.0319719 0
0.264479 -0.0142249 0
0.23983 -0.0116566 0
0.220339 -0.00921137 0
0 0 0
0 0 0
0 0 0
0.714556 -0.0737272 0
0.693017 -0.0542859 0
0.676831 -0.0354323 0
0.565573 -0.0505536 0
0.543769 -0.0368617 0
0.527954 -0.0235641 0
0.403273 -0.0319719 0
0.382553 -0.0241487 0
0.367879 -0.0164058 0
0.676831 -0.0354323 0
0.66396 -0.0172768 0
0.65625 0 0
0.527954 -0.0235641 0
0.516041 -0.0110159 0
0.509766 0 0
0.367879 -0.0164058 0
0.356981 -0.00852466 0
0.351562 0 0
0.403273 -0.0319719 0
0.382553 -0.0241487 0
0.367879 -0.0164058 0
0.220339 -0.00921137 0
0.20382 -0.00658095 0
0.19317 -0.0041099 0
0 0 0
0 0 0
0 0 0
0.367879 -0.0164058 0
0.356981 -0.00852466 0
0.351562 0 0
0.19317 -0.0041099 0
0.184874 -0.00166657 0
0.181641 0 0
0 0 0
0 0 0
0 0 0
1.78316 -0.353823 0
1.73298 -0.414128 0
1.62461 -0.450805 0
1.6412 -0.264832 0
1.57637 -0.315004 0
1.50592 -0.350878 0
1.47923 -0.196961 0
1.43651 -0.246093 0
1.38201 -0.281276 0
1.62461 -0.450805 0
1.56232 -0.458942 0
1.46017 -0.450931 0
1.50592 -0.350878 0
1.43773 -0.367281 0
1.36831 -0.371296 0
1.38201 -0.281276 0
1.33041 -0.301322 0
1.27215 -0.307794 0
1.47923 -0.196961 0
1.43651 -0.246093 0
1.38201 -0.281276 0
1.34907 -0.148266 0
1.31044 -0.180461 0
1.26177 -0.205564 0
1.17385 -0.0916393 0
1.13836 -0.118949 0
1.09595 -0.141032 0
1.38201 -0.281276 0
1.33041 -0.301322 0
1.27215 -0.307794 0
1.26177 -0.205564 0
1.21267 -0.220439 0
1.15747 -0.227367 0
1.09595 -0.141032 0
1.05309 -0.156518 0
1.00642 -0.16582 0
1.46017 -0.450931 0
1.41145 -0.430186 0
1.33857 -0.396731 0
1.36831 -0.371296 0
1.31522 -0.359737 0
1.26291 -0.340949 0
1.27215 -0.307794 0
1.22505 -0.30251 0
1.17662 -0.288217 0
1.33857 -0.396731 0
1.31111 -0.364298 0
1.26475 -0.323912 0
1.26291 -0.340949 0
1.22764 -0.313646 0
1.19484 -0.284598 0
1.17662 -0.288217 0
1.1392 -0.268287 0
1.10311 -0.244968 0
1.27215 -0.307794 0
1.22505 -0.30251 0
1.17662 -0.288217 0
1.15747 -0.227367 0
1.11148 -0.226232 0
1.06346 -0.219438 0
1.00642 -0.16582 0
0.96536 -0.168778 0
0.923529 -0.166755 0
1.17662 -0.288217 0
1.1392 -0.268287 0
1.10311 -0.244968 0
1.06346 -0.219438 0
1.02563 -0.207798 0
0.988662 -0.192278 0
0.923529 -0.166755 0
0.887338 -0.159768 0
0.85239 -0.149167 0
1.17385 -0.0916393 0
1.13836 -0.118949 0
1.09595 -0.141032 0
1.00736 -0.0636611 0
0.978161 -0.0827472 0
0.941314 -0.0981687 0
0.821083 -0.0271125 0
0.794938 -0.0396032 0
0.760965 -0.0500647 0
1.09595 -0.141032 0
1.05309 -0.156518 0
1.00642 -0.16582 0
0.941314 -0.0981687 0
0.902954 -0.108504 0
0.85931 -0.114332 0
0.760965 -0.0500647 0
0.724988 -0.0575298 0
0.683891 -0.06231 0
0.821083 -0.0271125 0
0.794938 -0.0396032 0
0.760965 -0.0500647 0
0.531252 -0.00839518 0
0.518978 -0.0126828 0
0.496819 -0.0163072 0
0 0 0
0 0 0
0 0 0
0.760965 -0.0500647 0
0.724988 -0.0575298 0
0.683891 -0.06231 0
0.496819 -0.0163072 0
0.47325 -0.0189907 0
0.442355 -0.0204732 0
0 0 0
0 0 0
0 0 0
1.00642 -0.16582 0
0.96536 -0.168778 0
0.923529 -0.166755 0
0.85931 -0.114332 0
0.819542 -0.115719 0
0.777645 -0.113887 0
0.683891 -0.06231 0
0.645703 -0.0645124 0
0.605386 -0.0648322 0
0.923529 -0.166755 0
0.887338 -0.159768 0
0.85239 -0.149167 0
0.777645 -0.113887 0
0.740588 -0.109313 0
0.704325 -0.102132 0
0.605386 -0.0648322 0
0.569456 -0.0633476 0
0.533903 -0.0600208 0
0.683891 -0.06231 0
0.645703 -0.0645124 0
0.605386 -0.0648322 0
0.442355 -0.0204732 0
0.413675 -0.021186 0
0.381512 -0.0209834 0
0 0 0
0 0 0
0 0 0
0.605386 -0.0648322 0
0.569456 -0.0633476 0
0.533903 -0.0600208 0
0.381512 -0.0209834 0
0.352281 -0.0203801 0
0.323146 -0.0188953 0
0 0 0
0 0 0
0 0 0
1.2503 -0.107061 0
1.32208 -0.0911533 0
1.37875 -0.0745775 0
1.27019 -0.188929 0
1.33218 -0.15216 0
1.38422 -0.120052 0
1.27647 -0.244505 0
1.32811 -0.195371 0
1.37541 -0.154189 0
1.37875 -0.0745775 0
1.41985 -0.0607245 0
1.45035 -0.046408 0
1.38422 -0.120052 0
1.42027 -0.0948875 0
1.44905 -0.0721308 0
1.37541 -0.154189 0
1.40614 -0.121286 0
1.43367 -0.0919073 0
1.27647 -0.244505 0
1.32811 -0.195371 0
1.37541 -0.154189 0
1.2952 -0.312167 0
1.33447 -0.247692 0
1.37037 -0.194149 0
1.31794 -0.336879 0
1.3382 -0.26922 0
1.35759 -0.211785 0
1.37541 -0.154189 0
1.40614 -0.121286 0
1.43367 -0.0919073 0
1.37037 -0.194149 0
1.39357 -0.152509 0
1.41516 -0.115197 0
1.35759 -0.211785 0
1.3715 -0.167041 0
1.38563 -0.125658 0
1.45035 -0.046408 0
1.47303 -0.0338491 0
1.48723 -0.0210347 0
1.44905 -0.0721308 0
1.46917 -0.0525079 0
1.48312 -0.0332752 0
1.43367 -0.0919073 0
1.4514 -0.0660923 0
1.46627 -0.0418344 0
1.48723 -0.0210347 0
1.49745 -0.0101057 0
1.5 0 0
1.48312 -0.0332752 0
1.49138 -0.0158477 0
1.49414 0 0
1.46627 -0.0418344 0
1.47304 -0.0200921 0
1.47656 0 0
1.43367 -0.0919073 0
1.4514 -0.0660923 0
1.46627 -0.0418344 0
1.41516 -0.115197 0
1.42841 -0.0834229 0
1.4404 -0.0534396 0
1.38563 -0.125658 0
1.39394 -0.0906205 0
1.40241 -0.057435 0
1.46627 -0.0418344 0
1.47304 -0.0200921 0
1.47656 0 0
1.4404 -0.0534396 0
1.44458 -0.0264334 0
1.44727 0 0
1.40241 -0.057435 0
1.40445 -0.0284274 0
1.40625 0 0
1.31794 -0.336879 0
1.3382 -0.26922 0
1.35759 -0.211785 0
1.31616 -0.359562 0
1.32748 -0.293134 0
1.33159 -0.232205 0
1.31823 -0.358985 0
1.31556 -0.29494 0
1.30269 -0.234696 0
1.35759 -0.211785 0
1.3715 -0.167041 0
1.38563 -0.125658 0
1.33159 -0.232205 0
1.3408 -0.185773 0
1.34574 -0.139508 0
1.30269 -0.234696 0
1.30361 -0.187884 0
1.29834 -0.140641 0
1.31823 -0.358985 0
1.31556 -0.29494 0
1.30269 -0.234696 0
1.29617 -0.345187 0
1.28192 -0.291673 0
1.25687 -0.233219 0
1.26475 -0.323912 0
1.24291 -0.275792 0
1.20323 -0.221646 0
1.30269 -0.234696 0
1.30361 -0.187884 0
1.29834 -0.140641 0
1.25687 -0.233219 0
1.25043 -0.190403 0
1.23757 -0.142426 0
1.20323 -0.221646 0
1.19185 -0.181116 0
1.16765 -0.135424 0
1.38563 -0.125658 0
1.39394 -0.0906205 0
1.40241 -0.057435 0
1.34574 -0.139508 0
1.35073 -0.101835 0
1.35289 -0.0649725 0
1.29834 -0.140641 0
1.29782 -0.102745 0
1.29291 -0.0647466 0
1.40241 -0.057435 0
1.40445 -0.0284274 0
1.40625 0 0
1.35289 -0.0649725 0
1.35426 -0.0335663 0
1.35352 0 0
1.29291 -0.0647466 0
1.29233 -0.032892 0
1.28906 0 0
1.29834 -0.140641 0
1.29782 -0.102745 0
1.29291 -0.0647466 0
1.23757 -0.142426 0
1.23169 -0.105898 0
1.22145 -0.0666275 0
1.16765 -0.135424 0
1.15856 -0.101198 0
1.13993 -0.0629425 0
1.29291 -0.0647466 0
1.29233 -0.032892 0
1.28906 0 0
1.22145 -0.0666275 0
1.21851 -0.0348675 0
1.21289 0 0
1.13993 -0.0629425 0
1.13568 -0.0324727 0
1.125 0 0
1.87656 0.453855 0
1.9934 0.3495 0
2.01116 0.233369 0
1.79473 0.400115 0
1.83823 0.326165 0
1.8732 0.235256 0
1.51564 0.334033 0
1.57771 0.279399 0
1.6183 0.21367 0
2.01116 0.233369 0
2.06333 0.127607 0
2.03562 0.0159743 0
1.8732 0.235256 0
1.87591 0.140192 0
1.86957 0.0393125 0
1.6183 0.21367 0
1.64267 0.140187 0
1.64421 0.0621964 0
1.51564 0.334033 0
1.57771 0.279399 0
1.6183 0.21367 0
1.39122 0.230752 0
1.42981 0.192222 0
1.46067 0.145046 0
1.23581 0.195043 0
1.26875 0.166845 0
1.29154 0.131978 0
1.6183 0.21367 0
1.64267 0.140187 0
1.64421 0.0621964 0
1.46067 0.145046 0
1.47469 0.093474 0
1.47771 0.0385032 0
1.29154 0.131978 0
1.30181 0.0927175 0
1.30085 0.0509512 0
2.03562 0.0159743 0
2.03282 -0.0847697 0
1.94803 -0.188978 0
1.86957 0.0393125 0
1.83067 -0.0549992 0
1.7825 -0.140228 0
1.64421 0.0621964 0
1.62823 -0.0131787 0
1.59081 -0.0832758 0
1.94803 -0.188978 0
1.89218 -0.271746 0
1.78316 -0.353823 0
1.7825 -0.140228 0
1.71735 -0.20879 0
1.6412 -0.264832 0
1.59081 -0.0832758 0
1.54095 -0.143224 0
1.47923 -0.196961 0
1.64421 0.0621964 0
1.62823 -0.0131787 0
1.59081 -0.0832758 0
1.47771 0.0385032 0
1.4636 -0.0149008 0
1.43762 -0.066579 0
1.30085 0.0509512 0
1.28661 0.00979109 0
1.26084 -0.0293032 0
1.59081 -0.0832758 0
1.54095 -0.143224 0
1.47923 -0.196961 0
1.43762 -0.066579 0
1.3994 -0.111193 0
1.34907 -0.148266 0
1.26084 -0.0293032 0
1.22233 -0.0629107 0
1.17385 -0.0916393 0
1.23581 0.195043 0
1.26875 0.166845 0
1.29154 0.131978 0
1.02247 0.131447 0
1.05483 0.115435 0
1.08123 0.093596 0
0.777971 0.0887277 0
0.815215 0.0811821 0
0.847076 0.0699079 0
1.29154 0.131978 0
1.30181 0.0927175 0
1.30085 0.0509512 0
1.08123 0.093596 0
1.09448 0.0676104 0
1.09924 0.0391571 0
0.847076 0.0699079 0
0.867609 0.055077 0
0.879855 0.0382081 0
0.777971 0.0887277 0
0.815215 0.0811821 0
0.847076 0.0699079 0
0.417776 0.0274333 0
0.456495 0.025628 0
0.491791 0.0223611 0
0 0 0
0 0 0
0 0 0
0.847076 0.0699079 0
0.867609 0.055077 0
0.879855 0.0382081 0
0.491791 0.0223611 0
0.519931 0.0182775 0
0.541308 0.0131701 0
0 0 0
0 0 0
0 0 0
1.30085 0.0509512 0
1.28661 0.00979109 0
1.26084 -0.0293032 0
1.09924 0.0391571 0
1.09045 0.010542 0
1.07236 -0.0172178 0
0.879855 0.0382081 0
0.87955 0.0203025 0
0.870267 0.00251801 0
1.26084 -0.0293032 0
1.22233 -0.0629107 0
1.17385 -0.0916393 0
1.07236 -0.0172178 0
1.04407 -0.0419827 0
1.00736 -0.0636611 0
0.870267 0.00251801 0
0.850048 -0.0134592 0
0.821083 -0.0271125 0
0.879855 0.0382081 0
0.87955 0.0203025 0
0.870267 0.00251801 0
0.541308 0.0131701 0
0.55285 0.00787782 0
0.555062 0.002028 0
0 0 0
0 0 0
0 0 0
0.870267 0.00251801 0
0.850048 -0.0134592 0
0.821083 -0.0271125 0
0.555062 0.002028 0
0.548333 -0.00337379 0
0.531252 -0.00839518 0
0 0 0
0 0 0
0 0 0
0.936156 0.026898 0
0.974512 0.159796 0
1.0905 0.291669 0
0.927933 -0.0397432 0
0.983256 0.0866148 0
1.01393 0.200042 0
0.945104 -0.0361186 0
0.96816 0.0657527 0
0.990775 0.146157 0
1.0905 0.291669 0
1.20422 0.411496 0
1.3625 0.507688 0
1.01393 0.200042 0
1.11391 0.301359 0
1.20436 0.382885 0
0.990775 0.146157 0
1.05886 0.223885 0
1.12637 0.280894 0
0.945104 -0.0361186 0
0.96816 0.0657527 0
0.990775 0.146157 0
0.908027 -0.0276461 0
0.924369 0.0387494 0
0.964925 0.100912 0
0.833532 -0.0242677 0
0.846497 0.0244091 0
0.868266 0.0712831 0
0.990775 0.146157 0
1.05886 0.223885 0
1.12637 0.280894 0
0.964925 0.100912 0
1.02169 0.162306 0
1.09254 0.21111 0
0.868266 0.0712831 0
0.911267 0.117587 0
0.961735 0.156255 0
1.3625 0.507688 0
1.52847 0.567182 0
1.68287 0.569341 0
1.20436 0.382885 0
1.36363 0.44757 0
1.51409 0.472063 0
1.12637 0.280894 0
1.20733 0.326573 0
1.29925 0.348763 0
1.68287 0.569341 0
1.78228 0.525186 0
1.87656 0.453855 0
1.51409 0.472063 0
1.67208 0.459848 0
1.79473 0.400115 0
1.29925 0.348763 0
1.3997 0.35302 0
1.51564 0.334033 0
1.12637 0.280894 0
1.20733 0.326573 0
1.29925 0.348763 0
1.09254 0.21111 0
1.16867 0.245595 0
1.24722 0.259373 0
0.961735 0.156255 0
1.02725 0.187461 0
1.09674 0.205625 0
1.29925 0.348763 0
1.3997 0.35302 0
1.51564 0.334033 0
1.24722 0.259373 0
1.32143 0.25408 0
1.39122 0.230752 0
1.09674 0.205625 0
1.16866 0.208674 0
1.23581 0.195043 0
0.833532 -0.0242677 0
0.846497 0.0244091 0
0.868266 0.0712831 0
0.68556 -0.0181737 0
0.691327 0.0122972 0
0.706799 0.0430388 0
0.4569 -0.0134707 0
0.462578 0.00224605 0
0.478828 0.0191577 0
0.868266 0.0712831 0
0.911267 0.117587 0
0.961735 0.156255 0
0.706799 0.0430388 0
0.740959 0.0738387 0
0.785952 0.0999836 0
0.478828 0.0191577 0
0.507195 0.0371125 0
0.548621 0.0542702 0
0.4569 -0.0134707 0
0.462578 0.00224605 0
0.478828 0.0191577 0
0.166752 0.000540933 0
0.165834 0.00604148 0
0.183041 0.0117172 0
0 0 0
0 0 0
0 0 0
0.478828 0.0191577 0
0.507195 0.0371125 0
0.548621 0.0542702 0
0.183041 0.0117172 0
0.204108 0.015899 0
0.236368 0.019999 0
0 0 0
0 0 0
0 0 0
0.961735 0.156255 0
1.02725 0.187461 0
1.09674 0.205625 0
0.785952 0.0999836 0
0.841342 0.119812 0
0.901288 0.132338 0
0.548621 0.0542702 0
0.599402 0.0695438 0
0.658305 0.0816552 0
1.09674 0.205625 0
1.16866 0.208674 0
1.23581 0.195043 0
0.901288 0.132338 0
0.962824 0.136367 0
1.02247 0.131447 0
0.658305 0.0816552 0
0.718415 0.0883839 0
0.777971 0.0887277 0
0.548621 0.0542702 0
0.599402 0.0695438 0
0.658305 0.0816552 0
0.236368 0.019999 0
0.274653 0.023018 0
0.319202 0.0253996 0
0 0 0
0 0 0
0 0 0
0.658305 0.0816552 0
0.718415 0.0883839 0
0.777971 0.0887277 0
0.319202 0.0253996 0
0.367548 0.0269139 0
0.417776 0.0274333 0
0 0 0
0 0 0
0 0 0
0.653259 0.434344 0
0.466264 0.86104 0
0.230289 1.30962 0
0.389425 0.544092 0
0.379817 0.991424 0
0.335522 1.29279 0
0.28344 0.579536 0
0.367881 0.96126 0
0.493147 1.12995 0
0.230289 1.30962 0
0.324989 1.4183 0
0.192247 1.466 0
0.335522 1.29279 0
0.484269 1.38044 0
0.42078 1.53096 0
0.493147 1.12995 0
0.66163 1.28597 0
0.690828 1.50401 0
0.28344 0.579536 0
0.367881 0.96126 0
0.493147 1.12995 0
0.20189 0.628117 0
0.440622 0.865006 0
0.635678 0.958323 0
0.244859 0.461039 0
0.576864 0.67081 0
0.722997 0.742112 0
0.493147 1.12995 0
0.66163 1.28597 0
0.690828 1.50401 0
0.635678 0.958323 0
0.817227 1.15479 0
0.917942 1.39275 0
0.722997 0.742112 0
0.924937 0.938779 0
1.06019 1.13688 0
0.192247 1.466 0
0.18779 1.5718 0
0.208242 1.20444 0
0.42078 1.53096 0
0.500674 1.61239 0
0.531501 1.28037 0
0.690828 1.50401 0
0.831686 1.57265 0
0.907458 1.38696 0
0.208242 1.20444 0
-0.0397727 0.891688 0
-0.153244 0.512099 0
0.531501 1.28037 0
0.290956 0.889769 0
0.16944 0.403715 0
0.907458 1.38696 0
0.705373 0.954233 0
0.564517 0.375975 0
0.690828 1.50401 0
0.831686 1.57265 0
0.907458 1.38696 0
0.917942 1.39275 0
1.14125 1.48142 0
1.2406 1.3567 0
1.06019 1.13688 0
1.39541 1.30572 0
1.5887 1.27981 0
0.907458 1.38696 0
0.705373 0.954233 0
0.564517 0.375975 0
1.2406 1.3567 0
1.11818 1.03625 0
0.949416 0.482322 0
1.5887 1.27981 0
1.54586 1.11976 0
1.38288 0.711934 0
0.244859 0.461039 0
0.576864 0.67081 0
0.722997 0.742112 0
0.409883 0.401007 0
0.686638 0.525616 0
0.819877 0.625539 0
0.616858 0.175711 0
0.832458 0.327556 0
0.970813 0.481408 0
0.722997 0.742112 0
0.924937 0.938779 0
1.06019 1.13688 0
0.819877 0.625539 0
1.00414 0.795173 0
1.15232 0.966705 0
0.970813 0.481408 0
1.10009 0.637346 0
1.21599 0.771548 0
0.616858 0.175711 0
0.832458 0.327556 0
0.970813 0.481408 0
0.891531 0.0474295 0
0.963725 0.230318 0
1.09531 0.372201 0
0.936156 0.026898 0
0.974512 0.159796 0
1.0905 0.291669 0
0.970813 0.481408 0
1.10009 0.637346 0
1.21599 0.771548 0
1.09531 0.372201 0
1.19812 0.523206 0
1.33301 0.637565 0
1.0905 0.291669 0
1.20422 0.411496 0
1.3625 0.507688 0
1.06019 1.13688 0
1.39541 1.30572 0
1.5887 1.27981 0
1.15232 0.966705 0
1.4743 1.11151 0
1.76285 1.12377 0
1.21599 0.771548 0
1.45772 0.883496 0
1.74481 0.90098 0
1.5887 1.27981 0
1.54586 1.11976 0
1.38288 0.711934 0
1.76285 1.12377 0
1.87584 1.04654 0
1.84806 0.800079 0
1.74481 0.90098 0
2.00939 0.861932 0
2.19617 0.728419 0
1.21599 0.771548 0
1.45772 0.883496 0
1.74481 0.90098 0
1.33301 0.637565 0
1.47375 0.718744 0
1.64415 0.728596 0
1.3625 0.507688 0
1.52847 0.567182 0
1.68287 0.569341 0
1.74481 0.90098 0
2.00939 0.861932 0
2.19617 0.728419 0
1.64415 0.728596 0
1.81729 0.708017 0
2.02339 0.650165 0
1.68287 0.569341 0
1.78228 0.525186 0
1.87656 0.453855 0
2.12342 -0.507443 0
2.21586 -0.385376 0
2.2372 -0.241233 0
2.12208 -0.603507 0
2.09903 -0.459812 0
2.05599 -0.2828 0
2.02325 -0.64253 0
2.05732 -0.465635 0
1.93793 -0.202283 0
2.2372 -0.241233 0
2.19978 -0.0972019 0
2.11663 0.0291575 0
2.05599 -0.2828 0
1.92269 -0.0934339 0
1.77014 0.0545723 0
1.93793 -0.202283 0
1.75688 0.00945587 0
1.43674 0.19152 0
2.02325 -0.64253 0
2.05732 -0.465635 0
1.93793 -0.202283 0
2.05034 -0.609615 0
1.86557 -0.303611 0
1.68186 0.00373051 0
1.70911 -0.40117 0
1.5116 -0.0646417 0
1.29366 0.262283 0
1.93793 -0.202283 0
1.75688 0.00945587 0
1.43674 0.19152 0
1.68186 0.00373051 0
1.34819 0.28017 0
1.04597 0.47476 0
1.29366 0.262283 0
0.939734 0.458611 0
0.560718 0.747154 0
2.11663 0.0291575 0
2.03988 0.104703 0
1.94712 0.155525 0
1.77014 0.0545723 0
1.59743 0.133089 0
1.44932 0.168014 0
1.43674 0.19152 0
1.20626 0.24966 0
0.916071 0.228754 0
1.94712 0.155525 0
1.91413 0.157726 0
1.87207 0.158553 0
1.44932 0.168014 0
1.37873 0.155311 0
1.36955 0.120351 0
0.916071 0.228754 0
0.774124 0.100845 0
0.619377 -0.00958187 0
1.43674 0.19152 0
1.20626 0.24966 0
0.916071 0.228754 0
1.04597 0.47476 0
0.697896 0.568675 0
0.409265 0.450151 0
0.560718 0.747154 0
0.208956 0.889666 0
0.00133482 0.519818 0
0.916071 0.228754 0
0.774124 0.100845 0
0.619377 -0.00958187 0
0.409265 0.450151 0
0.199575 0.30827 0
0.144714 0.0892981 0
0.00133482 0.519818 0
-0.266884 0.287074 0
-0.277899 0.143887 0
1.70911 -0.40117 0
1.5116 -0.0646417 0
1.29366 0.262283 0
1.40194 -0.322885 0
1.19294 0.171824 0
0.817665 0.522028 0
1.27027 -0.0777142 0
0.918895 0.432386 0
0.53616 0.781326 0
1.29366 0.262283 0
0.939734 0.458611 0
0.560718 0.747154 0
0.817665 0.522028 0
0.531058 0.772859 0
0.0628989 1.00265 0
0.53616 0.781326 0
0.209756 1.16196 0
-0.0698016 1.26264 0
1.27027 -0.0777142 0
0.918895 0.432386 0
0.53616 0.781326 0
0.942335 0.19004 0
0.616044 0.670575 0
0.344482 1.14087 0
0.653259 0.434344 0
0.466264 0.86104 0
0.230289 1.30962 0
0.53616 0.781326 0
0.209756 1.16196 0
-0.0698016 1.26264 0
0.344482 1.14087 0
0.216629 1.35251 0
0.00244722 1.37363 0
0.230289 1.30962 0
0.324989 1.4183 0
0.192247 1.466 0
0.560718 0.747154 0
0.208956 0.889666 0
0.00133482 0.519818 0
0.0628989 1.00265 0
-0.168821 1.20146 0
-0.264598 0.816225 0
-0.0698016 1.26264 0
-0.232824 1.32571 0
-0.250778 0.943393 0
0.00133482 0.519818 0
-0.266884 0.287074 0
-0.277899 0.143887 0
-0.264598 0.816225 0
-0.474888 0.394762 0
-0.560763 0.137656 0
-0.250778 0.943393 0
-0.46626 0.546202 0
-0.614253 0.232658 0
-0.0698016 1.26264 0
-0.232824 1.32571 0
-0.250778 0.943393 0
0.00244722 1.37363 0
-0.0902616 1.48372 0
-0.0869564 1.06005 0
0.192247 1.466 0
0.18779 1.5718 0
0.208242 1.20444 0
-0.250778 0.943393 0
-0.46626 0.546202 0
-0.614253 0.232658 0
-0.0869564 1.06005 0
-0.330897 0.670261 0
-0.480502 0.306073 0
0.208242 1.20444 0
-0.0397727 0.891688 0
-0.153244 0.512099 0
0 0 0
0 0 0
0 0 0
0.401398 -0.0149407 0
0.441103 -0.016077 0
0.478022 -0.0172403 0
0.712949 -0.081005 0
0.780779 -0.0828226 0
0.85121 -0.0822707 0
0 0 0
0 0 0
0 0 0
0.478022 -0.0172403 0
0.517821 -0.018103 0
0.554321 -0.0177021 0
0.85121 -0.0822707 0
0.90911 -0.0769659 0
0.959863 -0.0679144 0
0.712949 -0.081005 0
0.780779 -0.0828226 0
0.85121 -0.0822707 0
1.01657 -0.144543 0
1.09724 -0.139022 0
1.16363 -0.126481 0
1.24977 -0.228546 0
1.31713 -0.20677 0
1.3811 -0.180453 0
0.85121 -0.0822707 0
0.90911 -0.0769659 0
0.959863 -0.0679144 0
1.16363 -0.126481 0