# vtk DataFile Version 3.0
#This file was generated by the deal.II library on 2025/1/4 at 9:56:50
ASCII
DATASET UNSTRUCTURED_GRID

POINTS 8640 double
1.1 1.1 0
0.9625 1.09063 0
0.825 1.08125 0
1.0875 0.9625 0
0.951563 0.954297 0
0.815625 0.946094 0
1.075 0.825 0
0.940625 0.817969 0
0.80625 0.810937 0
0.825 1.08125 0
0.6875 1.07187 0
0.55 1.0625 0
0.815625 0.946094 0
0.679688 0.937891 0
0.54375 0.929688 0
0.80625 0.810937 0
0.671875 0.803906 0
0.5375 0.796875 0
1.075 0.825 0
0.940625 0.817969 0
0.80625 0.810937 0
1.0625 0.6875 0
0.929688 0.681641 0
0.796875 0.675781 0
1.05 0.55 0
0.91875 0.545313 0
0.7875 0.540625 0
0.80625 0.810937 0
0.671875 0.803906 0
0.5375 0.796875 0
0.796875 0.675781 0
0.664062 0.669922 0
0.53125 0.664062 0
0.7875 0.540625 0
0.65625 0.535937 0
0.525 0.53125 0
0.55 1.0625 0
0.4125 1.05313 0
0.275 1.04375 0
0.54375 0.929688 0
0.407813 0.921484 0
0.271875 0.913281 0
0.5375 0.796875 0
0.403125 0.789844 0
0.26875 0.782813 0
0.275 1.04375 0
0.1375 1.03437 0
0 1.025 0
0.271875 0.913281 0
0.135938 0.905078 0
0 0.896875 0
0.26875 0.782813 0
0.134375 0.775781 0
0 0.76875 0
0.5375 0.796875 0
0.403125 0.789844 0
0.26875 0.782813 0
0.53125 0.664062 0
0.398438 0.658203 0
0.265625 0.652344 0
0.525 0.53125 0
0.39375 0.526563 0
0.2625 0.521875 0
0.26875 0.782813 0
0.134375 0.775781 0
0 0.76875 0
0.265625 0.652344 0
0.132812 0.646484 0
0 0.640625 0
0.2625 0.521875 0
0.13125 0.517187 0
0 0.5125 0
1.05 0.55 0
0.91875 0.545313 0
0.7875 0.540625 0
1.0375 0.4125 0
0.907812 0.408984 0
0.778125 0.405469 0
1.025 0.275 0
0.896875 0.272656 0
0.76875 0.270313 0
0.7875 0.540625 0
0.65625 0.535937 0
0.525 0.53125 0
0.778125 0.405469 0
0.648438 0.401953 0
0.51875 0.398438 0
0.76875 0.270313 0
0.640625 0.267969 0
0.5125 0.265625 0
1.025 0.275 0
0.896875 0.272656 0
0.76875 0.270313 0
1.0125 0.1375 0
0.885937 0.136328 0
0.759375 0.135156 0
1 0 0
0.875 0 0
0.75 0 0
0.76875 0.270313 0
0.640625 0.267969 0
0.5125 0.265625 0
0.759375 0.135156 0
0.632812 0.133984 0
0.50625 0.132812 0
0.75 0 0
0.625 0 0
0.5 0 0
0.525 0.53125 0
0.39375 0.526563 0
0.2625 0.521875 0
0.51875 0.398438 0
0.389062 0.394922 0
0.259375 0.391406 0
0.5125 0.265625 0
0.384375 0.263281 0
0.25625 0.260937 0
0.2625 0.521875 0
0.13125 0.517187 0
0 0.5125 0
0.259375 0.391406 0
0.129688 0.387891 0
0 0.384375 0
0.25625 0.260937 0
0.128125 0.258594 0
0 0.25625 0
0.5125 0.265625 0
0.384375 0.263281 0
0.25625 0.260937 0
0.50625 0.132812 0
0.379687 0.131641 0
0.253125 0.130469 0
0.5 0 0
0.375 0 0
0.25 0 0
0.25625 0.260937 0
0.128125 0.258594 0
0 0.25625 0
0.253125 0.130469 0
0.126562 0.129297 0
0 0.128125 0
0.25 0 0
0.125 0 0
0 0 0
2 1 0
1.8875 1.0125 0
1.775 1.025 0
2 0.875 0
1.88594 0.885938 0
1.77188 0.896875 0
2 0.75 0
1.88437 0.759375 0
1.76875 0.76875 0
1.775 1.025 0
1.6625 1.0375 0
1.55 1.05 0
1.77188 0.896875 0
1.65781 0.907813 0
1.54375 0.91875 0
1.76875 0.76875 0
1.65313 0.778125 0
1.5375 0.7875 0
2 0.75 0
1.88437 0.759375 0
1.76875 0.76875 0
2 0.625 0
1.88281 0.632812 0
1.76562 0.640625 0
2 0.5 0
1.88125 0.50625 0
1.7625 0.5125 0
1.76875 0.76875 0
1.65313 0.778125 0
1.5375 0.7875 0
1.76562 0.640625 0
1.64844 0.648438 0
1.53125 0.65625 0
1.7625 0.5125 0
1.64375 0.51875 0
1.525 0.525 0
1.55 1.05 0
1.4375 1.0625 0
1.325 1.075 0
1.54375 0.91875 0
1.42969 0.929688 0
1.31563 0.940625 0
1.5375 0.7875 0
1.42188 0.796875 0
1.30625 0.80625 0
1.325 1.075 0
1.2125 1.0875 0
1.1 1.1 0
1.31563 0.940625 0
1.20156 0.951563 0
1.0875 0.9625 0
1.30625 0.80625 0
1.19063 0.815625 0
1.075 0.825 0
1.5375 0.7875 0
1.42188 0.796875 0
1.30625 0.80625 0
1.53125 0.65625 0
1.41406 0.664062 0
1.29688 0.671875 0
1.525 0.525 0
1.40625 0.53125 0
1.2875 0.5375 0
1.30625 0.80625 0
1.19063 0.815625 0
1.075 0.825 0
1.29688 0.671875 0
1.17969 0.679688 0
1.0625 0.6875 0
1.2875 0.5375 0
1.16875 0.54375 0
1.05 0.55 0
2 0.5 0
1.88125 0.50625 0
1.7625 0.5125 0
2 0.375 0
1.87969 0.379687 0
1.75938 0.384375 0
2 0.25 0
1.87813 0.253125 0
1.75625 0.25625 0
1.7625 0.5125 0
1.64375 0.51875 0
1.525 0.525 0
1.75938 0.384375 0
1.63906 0.389063 0
1.51875 0.39375 0
1.75625 0.25625 0
1.63438 0.259375 0
1.5125 0.2625 0
2 0.25 0
1.87813 0.253125 0
1.75625 0.25625 0
2 0.125 0
1.87656 0.126562 0
1.75313 0.128125 0
2 0 0
1.875 0 0
1.75 0 0
1.75625 0.25625 0
1.63438 0.259375 0
1.5125 0.2625 0
1.75313 0.128125 0
1.62969 0.129688 0
1.50625 0.13125 0
1.75 0 0
1.625 0 0
1.5 0 0
1.525 0.525 0
1.40625 0.53125 0
1.2875 0.5375 0
1.51875 0.39375 0
1.39844 0.398438 0
1.27813 0.403125 0
1.5125 0.2625 0
1.39062 0.265625 0
1.26875 0.26875 0
1.2875 0.5375 0
1.16875 0.54375 0
1.05 0.55 0
1.27813 0.403125 0
1.15781 0.407813 0
1.0375 0.4125 0
1.26875 0.26875 0
1.14688 0.271875 0
1.025 0.275 0
1.5125 0.2625 0
1.39062 0.265625 0
1.26875 0.26875 0
1.50625 0.13125 0
1.38281 0.132812 0
1.25937 0.134375 0
1.5 0 0
1.375 0 0
1.25 0 0
1.26875 0.26875 0
1.14688 0.271875 0
1.025 0.275 0
1.25937 0.134375 0
1.13594 0.135938 0
1.0125 0.1375 0
1.25 0 0
1.125 0 0
1 0 0
1 2 0
0.875 2.00625 0
0.75 2.0125 0
1.0125 1.8875 0
0.885938 1.8918 0
0.759375 1.89609 0
1.025 1.775 0
0.896875 1.77734 0
0.76875 1.77969 0
0.75 2.0125 0
0.625 2.01875 0
0.5 2.025 0
0.759375 1.89609 0
0.632812 1.90039 0
0.50625 1.90469 0
0.76875 1.77969 0
0.640625 1.78203 0
0.5125 1.78437 0
1.025 1.775 0
0.896875 1.77734 0
0.76875 1.77969 0
1.0375 1.6625 0
0.907813 1.66289 0
0.778125 1.66328 0
1.05 1.55 0
0.91875 1.54844 0
0.7875 1.54688 0
0.76875 1.77969 0
0.640625 1.78203 0
0.5125 1.78437 0
0.778125 1.66328 0
0.648438 1.66367 0
0.51875 1.66406 0
0.7875 1.54688 0
0.65625 1.54531 0
0.525 1.54375 0
0.5 2.025 0
0.375 2.03125 0
0.25 2.0375 0
0.50625 1.90469 0
0.379687 1.90898 0
0.253125 1.91328 0
0.5125 1.78437 0
0.384375 1.78672 0
0.25625 1.78906 0
0.25 2.0375 0
0.125 2.04375 0
0 2.05 0
0.253125 1.91328 0
0.126562 1.91758 0
0 1.92187 0
0.25625 1.78906 0
0.128125 1.79141 0
0 1.79375 0
0.5125 1.78437 0
0.384375 1.78672 0
0.25625 1.78906 0
0.51875 1.66406 0
0.389062 1.66445 0
0.259375 1.66484 0
0.525 1.54375 0
0.39375 1.54219 0
0.2625 1.54062 0
0.25625 1.78906 0
0.128125 1.79141 0
0 1.79375 0
0.259375 1.66484 0
0.129688 1.66523 0
0 1.66562 0
0.2625 1.54062 0
0.13125 1.53906 0
0 1.5375 0
1.05 1.55 0
0.91875 1.54844 0
0.7875 1.54688 0
1.0625 1.4375 0
0.929688 1.43398 0
0.796875 1.43047 0
1.075 1.325 0
0.940625 1.31953 0
0.80625 1.31406 0
0.7875 1.54688 0
0.65625 1.54531 0
0.525 1.54375 0
0.796875 1.43047 0
0.664062 1.42695 0
0.53125 1.42344 0
0.80625 1.31406 0
0.671875 1.30859 0
0.5375 1.30312 0
1.075 1.325 0
0.940625 1.31953 0
0.80625 1.31406 0
1.0875 1.2125 0
0.951563 1.20508 0
0.815625 1.19766 0
1.1 1.1 0
0.9625 1.09063 0
0.825 1.08125 0
0.80625 1.31406 0
0.671875 1.30859 0
0.5375 1.30312 0
0.815625 1.19766 0
0.679688 1.19023 0
0.54375 1.18281 0
0.825 1.08125 0
0.6875 1.07187 0
0.55 1.0625 0
0.525 1.54375 0
0.39375 1.54219 0
0.2625 1.54062 0
0.53125 1.42344 0
0.398438 1.41992 0
0.265625 1.41641 0
0.5375 1.30312 0
0.403125 1.29766 0
0.26875 1.29219 0
0.2625 1.54062 0
0.13125 1.53906 0
0 1.5375 0
0.265625 1.41641 0
0.132812 1.41289 0
0 1.40937 0
0.26875 1.29219 0
0.134375 1.28672 0
0 1.28125 0
0.5375 1.30312 0
0.403125 1.29766 0
0.26875 1.29219 0
0.54375 1.18281 0
0.407813 1.17539 0
0.271875 1.16797 0
0.55 1.0625 0
0.4125 1.05313 0
0.275 1.04375 0
0.26875 1.29219 0
0.134375 1.28672 0
0 1.28125 0
0.271875 1.16797 0
0.135938 1.16055 0
0 1.15312 0
0.275 1.04375 0
0.1375 1.03437 0
0 1.025 0
2.9 1.1 0
2.7875 1.0875 0
2.675 1.075 0
2.9125 0.9625 0
2.79844 0.951563 0
2.68438 0.940625 0
2.925 0.825 0
2.80938 0.815625 0
2.69375 0.80625 0
2.675 1.075 0
2.5625 1.0625 0
2.45 1.05 0
2.68438 0.940625 0
2.57031 0.929688 0
2.45625 0.91875 0
2.69375 0.80625 0
2.57812 0.796875 0
2.4625 0.7875 0
2.925 0.825 0
2.80938 0.815625 0
2.69375 0.80625 0
2.9375 0.6875 0
2.82031 0.679688 0
2.70312 0.671875 0
2.95 0.55 0
2.83125 0.54375 0
2.7125 0.5375 0
2.69375 0.80625 0
2.57812 0.796875 0
2.4625 0.7875 0
2.70312 0.671875 0
2.58594 0.664062 0
2.46875 0.65625 0
2.7125 0.5375 0
2.59375 0.53125 0
2.475 0.525 0
2.45 1.05 0
2.3375 1.0375 0
2.225 1.025 0
2.45625 0.91875 0
2.34219 0.907813 0
2.22813 0.896875 0
2.4625 0.7875 0
2.34688 0.778125 0
2.23125 0.76875 0
2.225 1.025 0
2.1125 1.0125 0
2 1 0
2.22813 0.896875 0
2.11406 0.885938 0
2 0.875 0
2.23125 0.76875 0
2.11563 0.759375 0
2 0.75 0
2.4625 0.7875 0
2.34688 0.778125 0
2.23125 0.76875 0
2.46875 0.65625 0
2.35156 0.648438 0
2.23438 0.640625 0
2.475 0.525 0
2.35625 0.51875 0
2.2375 0.5125 0
2.23125 0.76875 0
2.11563 0.759375 0
2 0.75 0
2.23438 0.640625 0
2.11719 0.632812 0
2 0.625 0
2.2375 0.5125 0
2.11875 0.50625 0
2 0.5 0
2.95 0.55 0
2.83125 0.54375 0
2.7125 0.5375 0
2.9625 0.4125 0
2.84219 0.407813 0
2.72188 0.403125 0
2.975 0.275 0
2.85313 0.271875 0
2.73125 0.26875 0
2.7125 0.5375 0
2.59375 0.53125 0
2.475 0.525 0
2.72188 0.403125 0
2.60156 0.398438 0
2.48125 0.39375 0
2.73125 0.26875 0
2.60938 0.265625 0
2.4875 0.2625 0
2.975 0.275 0
2.85313 0.271875 0
2.73125 0.26875 0
2.9875 0.1375 0
2.86406 0.135938 0
2.74063 0.134375 0
3 0 0
2.875 0 0
2.75 0 0
2.73125 0.26875 0
2.60938 0.265625 0
2.4875 0.2625 0
2.74063 0.134375 0
2.61719 0.132812 0
2.49375 0.13125 0
2.75 0 0
2.625 0 0
2.5 0 0
2.475 0.525 0
2.35625 0.51875 0
2.2375 0.5125 0
2.48125 0.39375 0
2.36094 0.389063 0
2.24062 0.384375 0
2.4875 0.2625 0
2.36562 0.259375 0
2.24375 0.25625 0
2.2375 0.5125 0
2.11875 0.50625 0
2 0.5 0
2.24062 0.384375 0
2.12031 0.379687 0
2 0.375 0
2.24375 0.25625 0
2.12188 0.253125 0
2 0.25 0
2.4875 0.2625 0
2.36562 0.259375 0
2.24375 0.25625 0
2.49375 0.13125 0
2.37031 0.129688 0
2.24688 0.128125 0
2.5 0 0
2.375 0 0
2.25 0 0
2.24375 0.25625 0
2.12188 0.253125 0
2 0.25 0
2.24688 0.128125 0
2.12344 0.126562 0
2 0.125 0
2.25 0 0
2.125 0 0
2 0 0
4 1 0
3.8625 1.0125 0
3.725 1.025 0
4 0.875 0
3.86406 0.885938 0
3.72813 0.896875 0
4 0.75 0
3.86563 0.759375 0
3.73125 0.76875 0
3.725 1.025 0
3.5875 1.0375 0
3.45 1.05 0
3.72813 0.896875 0
3.59219 0.907813 0
3.45625 0.91875 0
3.73125 0.76875 0
3.59688 0.778125 0
3.4625 0.7875 0
4 0.75 0
3.86563 0.759375 0
3.73125 0.76875 0
4 0.625 0
3.86719 0.632812 0
[...]
POINT_DATA 8640
VECTORS v double
1.22475 -0.246446 0
1.20733 -0.20472 0
1.18459 -0.163102 0
1.15231 -0.219161 0
1.12548 -0.183613 0
1.1013 -0.15213 0
1.06569 -0.190436 0
1.03491 -0.161265 0
1.00624 -0.134125 0
1.18459 -0.163102 0
1.17433 -0.133047 0
1.15975 -0.101764 0
1.1013 -0.15213 0
1.08293 -0.123228 0
1.06705 -0.0975731 0
1.00624 -0.134125 0
0.982983 -0.109328 0
0.963007 -0.0867714 0
1.06569 -0.190436 0
1.03491 -0.161265 0
1.00624 -0.134125 0
0.953685 -0.14841 0
0.919444 -0.127458 0
0.888408 -0.108166 0
0.819619 -0.115332 0
0.786466 -0.100232 0
0.755811 -0.0858404 0
1.00624 -0.134125 0
0.982983 -0.109328 0
0.963007 -0.0867714 0
0.888408 -0.108166 0
0.862838 -0.0895946 0
0.840913 -0.0720796 0
0.755811 -0.0858404 0
0.729921 -0.0715941 0
0.707551 -0.0580317 0
1.15975 -0.101764 0
1.15178 -0.0774102 0
1.14054 -0.0505434 0
1.06705 -0.0975731 0
1.0538 -0.0734616 0
1.04291 -0.0496209 0
0.963007 -0.0867714 0
0.946491 -0.0649924 0
0.933853 -0.0439101 0
1.14054 -0.0505434 0
1.13365 -0.0266938 0
1.125 0 0
1.04291 -0.0496209 0
1.03288 -0.0251822 0
1.02539 0 0
0.933853 -0.0439101 0
0.92186 -0.0221114 0
0.914062 0 0
0.963007 -0.0867714 0
0.946491 -0.0649924 0
0.933853 -0.0439101 0
0.840913 -0.0720796 0
0.823324 -0.0544988 0
0.809939 -0.0374156 0
0.707551 -0.0580317 0
0.689329 -0.0443153 0
0.67538 -0.0307732 0
0.933853 -0.0439101 0
0.92186 -0.0221114 0
0.914062 0 0
0.809939 -0.0374156 0
0.79833 -0.0192365 0
0.791016 0 0
0.67538 -0.0307732 0
0.663438 -0.0160118 0
0.65625 0 0
0.819619 -0.115332 0
0.786466 -0.100232 0
0.755811 -0.0858404 0
0.670459 -0.077393 0
0.637608 -0.0674221 0
0.607067 -0.0579121 0
0.497832 -0.04571 0
0.467994 -0.0402009 0
0.440366 -0.0349918 0
0.755811 -0.0858404 0
0.729921 -0.0715941 0
0.707551 -0.0580317 0
0.607067 -0.0579121 0
0.581241 -0.048617 0
0.55882 -0.0397121 0
0.440366 -0.0349918 0
0.416809 -0.0298537 0
0.396406 -0.0249487 0
0.497832 -0.04571 0
0.467994 -0.0402009 0
0.440366 -0.0349918 0
0.294542 -0.0138274 0
0.27128 -0.0120031 0
0.250324 -0.0104067 0
0 0 0
0 0 0
0 0 0
0.440366 -0.0349918 0
0.416809 -0.0298537 0
0.396406 -0.0249487 0
0.250324 -0.0104067 0
0.231776 -0.00878495 0
0.216207 -0.00734342 0
0 0 0
0 0 0
0 0 0
0.707551 -0.0580317 0
0.689329 -0.0443153 0
0.67538 -0.0307732 0
0.55882 -0.0397121 0
0.540595 -0.0304084 0
0.526829 -0.0211215 0
0.396406 -0.0249487 0
0.379549 -0.0197034 0
0.366947 -0.0144578 0
0.67538 -0.0307732 0
0.663438 -0.0160118 0
0.65625 0 0
0.526829 -0.0211215 0
0.515753 -0.0108506 0
0.509766 0 0
0.366947 -0.0144578 0
0.356816 -0.0082089 0
0.351562 0 0
0.396406 -0.0249487 0
0.379549 -0.0197034 0
0.366947 -0.0144578 0
0.216207 -0.00734342 0
0.202683 -0.00558857 0
0.193172 -0.0039691 0
0 0 0
0 0 0
0 0 0
0.366947 -0.0144578 0
0.356816 -0.0082089 0
0.351562 0 0
0.193172 -0.0039691 0
0.185099 -0.00197733 0
0.181641 0 0
0 0 0
0 0 0
0 0 0
1.66684 -0.340691 0
1.59932 -0.382858 0
1.52259 -0.402454 0
1.51713 -0.262568 0
1.4628 -0.296592 0
1.39896 -0.316408 0
1.37855 -0.20546 0
1.33645 -0.237858 0
1.29294 -0.258813 0
1.52259 -0.402454 0
1.45097 -0.397807 0
1.37706 -0.379954 0
1.39896 -0.316408 0
1.34324 -0.321741 0
1.28297 -0.315372 0
1.29294 -0.258813 0
1.24648 -0.266691 0
1.19904 -0.263619 0
1.37855 -0.20546 0
1.33645 -0.237858 0
1.29294 -0.258813 0
1.253 -0.157479 0
1.21601 -0.176415 0
1.17458 -0.18915 0
1.08782 -0.105832 0
1.05302 -0.122131 0
1.01541 -0.134084 0
1.29294 -0.258813 0
1.24648 -0.266691 0
1.19904 -0.263619 0
1.17458 -0.18915 0
1.13126 -0.194519 0
1.08593 -0.193316 0
1.01541 -0.134084 0
0.97838 -0.141289 0
0.939674 -0.143315 0
1.37706 -0.379954 0
1.32624 -0.352562 0
1.27873 -0.317569 0
1.28297 -0.315372 0
1.24264 -0.297883 0
1.20103 -0.274667 0
1.19904 -0.263619 0
1.15966 -0.251467 0
1.12176 -0.233604 0
1.27873 -0.317569 0
1.25161 -0.283693 0
1.22475 -0.246446 0
1.20103 -0.274667 0
1.17597 -0.247122 0
1.15231 -0.219161 0
1.12176 -0.233604 0
1.09273 -0.212676 0
1.06569 -0.190436 0
1.19904 -0.263619 0
1.15966 -0.251467 0
1.12176 -0.233604 0
1.08593 -0.193316 0
1.04803 -0.186666 0
1.01077 -0.176336 0
0.939674 -0.143315 0
0.906686 -0.140811 0
0.873693 -0.13489 0
1.12176 -0.233604 0
1.09273 -0.212676 0
1.06569 -0.190436 0
1.01077 -0.176336 0
0.981192 -0.163347 0
0.953685 -0.14841 0
0.873693 -0.13489 0
0.846124 -0.126096 0
0.819619 -0.115332 0
1.08782 -0.105832 0
1.05302 -0.122131 0
1.01541 -0.134084 0
0.929054 -0.0747443 0
0.898748 -0.0854224 0
0.864153 -0.0929944 0
0.747828 -0.0365499 0
0.718558 -0.0437079 0
0.684609 -0.0491554 0
1.01541 -0.134084 0
0.97838 -0.141289 0
0.939674 -0.143315 0
0.864153 -0.0929944 0
0.829984 -0.0969084 0
0.792643 -0.0973387 0
0.684609 -0.0491554 0
0.65162 -0.0525339 0
0.615687 -0.0538914 0
0.747828 -0.0365499 0
0.718558 -0.0437079 0
0.684609 -0.0491554 0
0.473673 -0.0110165 0
0.45767 -0.0135202 0
0.434619 -0.0154489 0
0 0 0
0 0 0
0 0 0
0.684609 -0.0491554 0
0.65162 -0.0525339 0
0.615687 -0.0538914 0
0.434619 -0.0154489 0
0.412946 -0.0166289 0
0.386227 -0.0169446 0
0 0 0
0 0 0
0 0 0
0.939674 -0.143315 0
0.906686 -0.140811 0
0.873693 -0.13489 0
0.792643 -0.0973387 0
0.760063 -0.0948651 0
0.726486 -0.0903471 0
0.615687 -0.0538914 0
0.584187 -0.0534921 0
0.551851 -0.0518965 0
0.873693 -0.13489 0
0.846124 -0.126096 0
0.819619 -0.115332 0
0.726486 -0.0903471 0
0.698081 -0.0845215 0
0.670459 -0.077393 0
0.551851 -0.0518965 0
0.524485 -0.0493325 0
0.497832 -0.04571 0
0.615687 -0.0538914 0
0.584187 -0.0534921 0
0.551851 -0.0518965 0
0.386227 -0.0169446 0
0.363085 -0.016792 0
0.337802 -0.0160378 0
0 0 0
0 0 0
0 0 0
0.551851 -0.0518965 0
0.524485 -0.0493325 0
0.497832 -0.04571 0
0.337802 -0.0160378 0
0.316072 -0.0151894 0
0.294542 -0.0138274 0
0 0 0
0 0 0
0 0 0
1.25064 0.0291251 0
1.32255 0.0241959 0
1.37912 0.0178096 0
1.25897 -0.0448367 0
1.324 -0.0327817 0
1.3789 -0.0237102 0
1.24792 -0.108575 0
1.30978 -0.0817507 0
1.36242 -0.061536 0
1.37912 0.0178096 0
1.42021 0.0121748 0
1.45054 0.0067754 0
1.3789 -0.0237102 0
1.41684 -0.0198878 0
1.44717 -0.0166911 0
1.36242 -0.061536 0
1.39899 -0.0488859 0
1.42873 -0.0382767 0
1.24792 -0.108575 0
1.30978 -0.0817507 0
1.36242 -0.061536 0
1.26461 -0.181424 0
1.31313 -0.137114 0
1.35529 -0.103371 0
1.27529 -0.213754 0
1.30747 -0.164987 0
1.33683 -0.126231 0
1.36242 -0.061536 0
1.39899 -0.0488859 0
1.42873 -0.0382767 0
1.35529 -0.103371 0
1.38452 -0.0811158 0
1.40928 -0.0623854 0
1.33683 -0.126231 0
1.35818 -0.0996159 0
1.37738 -0.0760449 0
1.45054 0.0067754 0
1.47311 0.00304588 0
1.48716 0.000355579 0
1.44717 -0.0166911 0
1.46799 -0.0143909 0
1.48236 -0.0107334 0
1.42873 -0.0382767 0
1.44947 -0.0296144 0
1.46451 -0.0203502 0
1.48716 0.000355579 0
1.4974 -0.000427365 0
1.5 0 0
1.48236 -0.0107334 0
1.49108 -0.00593728 0
1.49414 0 0
1.46451 -0.0203502 0
1.47324 -0.010717 0
1.47656 0 0
1.42873 -0.0382767 0
1.44947 -0.0296144 0
1.46451 -0.0203502 0
1.40928 -0.0623854 0
1.42585 -0.0474279 0
1.43866 -0.0321698 0
1.37738 -0.0760449 0
1.38985 -0.0570089 0
1.40043 -0.0378512 0
1.46451 -0.0203502 0
1.47324 -0.010717 0
1.47656 0 0
1.43866 -0.0321698 0
1.44469 -0.0169371 0
1.44727 0 0
1.40043 -0.0378512 0
1.40434 -0.0197124 0
1.40625 0 0
1.27529 -0.213754 0
1.30747 -0.164987 0
1.33683 -0.126231 0
1.27394 -0.251982 0
1.2951 -0.198544 0
1.31176 -0.153839 0
1.27594 -0.259456 0
1.28037 -0.206889 0
1.28196 -0.161928 0
1.33683 -0.126231 0
1.35818 -0.0996159 0
1.37738 -0.0760449 0
1.31176 -0.153839 0
1.32631 -0.122594 0
1.3379 -0.0935249 0
1.28196 -0.161928 0
1.28662 -0.129181 0
1.28976 -0.0984274 0
1.27594 -0.259456 0
1.28037 -0.206889 0
1.28196 -0.161928 0
1.25108 -0.258825 0
1.24694 -0.214137 0
1.23538 -0.168642 0
1.22475 -0.246446 0
1.20733 -0.20472 0
1.18459 -0.163102 0
1.28196 -0.161928 0
1.28662 -0.129181 0
1.28976 -0.0984274 0
1.23538 -0.168642 0
1.23413 -0.137677 0
1.22839 -0.10474 0
1.18459 -0.163102 0
1.17433 -0.133047 0
1.15975 -0.101764 0
1.37738 -0.0760449 0
1.38985 -0.0570089 0
1.40043 -0.0378512 0
1.3379 -0.0935249 0
1.34595 -0.0703867 0
1.35186 -0.046991 0
1.28976 -0.0984274 0
1.29159 -0.0737213 0
1.29247 -0.0485002 0
1.40043 -0.0378512 0
1.40434 -0.0197124 0
1.40625 0 0
1.35186 -0.046991 0
1.35357 -0.0251195 0
1.35352 0 0
1.29247 -0.0485002 0
1.29097 -0.0253459 0
1.28906 0 0
1.28976 -0.0984274 0
1.29159 -0.0737213 0
1.29247 -0.0485002 0
1.22839 -0.10474 0
1.22632 -0.0800057 0
1.22136 -0.05243 0
1.15975 -0.101764 0
1.15178 -0.0774102 0
1.14054 -0.0505434 0
1.29247 -0.0485002 0
1.29097 -0.0253459 0
1.28906 0 0
1.22136 -0.05243 0
1.21796 -0.0282943 0
1.21289 0 0
1.14054 -0.0505434 0
1.13365 -0.0266938 0
1.125 0 0
1.6043 0.235605 0
1.71183 0.171188 0
1.80249 0.111227 0
1.61875 0.109679 0
1.66472 0.103948 0
1.71045 0.0676112 0
1.48963 0.0915155 0
1.50065 0.0825931 0
1.52682 0.0594026 0
1.80249 0.111227 0
1.84639 0.0203066 0
1.87304 -0.0574325 0
1.71045 0.0676112 0
1.72154 0.0152892 0
1.7232 -0.0502676 0
1.52682 0.0594026 0
1.52624 0.0181431 0
1.53238 -0.0298853 0
1.48963 0.0915155 0
1.50065 0.0825931 0
1.52682 0.0594026 0
1.36142 0.0275771 0
1.37161 0.020898 0
1.3877 0.00466152 0
1.26894 0.0179764 0
1.2632 0.0155393 0
1.26322 0.00748748 0
1.52682 0.0594026 0
1.52624 0.0181431 0
1.53238 -0.0298853 0
1.3877 0.00466152 0
1.38761 -0.0189223 0
1.38588 -0.0475077 0
1.26322 0.00748748 0
1.24843 -0.00797247 0
1.23577 -0.0269958 0
1.87304 -0.0574325 0
1.85677 -0.14541 0
1.81602 -0.221365 0
1.7232 -0.0502676 0
1.69124 -0.117295 0
1.64514 -0.176775 0
1.53238 -0.0298853 0
1.50548 -0.0813026 0
1.48039 -0.129401 0
1.81602 -0.221365 0
1.7415 -0.28429 0
1.66684 -0.340691 0
1.64514 -0.176775 0
1.58876 -0.225951 0
1.51713 -0.262568 0
1.48039 -0.129401 0
1.42812 -0.169733 0
1.37855 -0.20546 0
1.53238 -0.0298853 0
1.50548 -0.0813026 0
1.48039 -0.129401 0
1.38588 -0.0475077 0
1.36505 -0.0785943 0
1.33902 -0.109122 0
1.23577 -0.0269958 0
1.20754 -0.0492242 0
1.17765 -0.0709104 0
1.48039 -0.129401 0
1.42812 -0.169733 0
1.37855 -0.20546 0
1.33902 -0.109122 0
1.29902 -0.136483 0
1.253 -0.157479 0
1.17765 -0.0709104 0
1.13478 -0.0901675 0
1.08782 -0.105832 0
1.26894 0.0179764 0
1.2632 0.0155393 0
1.26322 0.00748748 0
1.10462 0.0162221 0
1.09406 0.0129145 0
1.08755 0.00593411 0
0.897955 0.0201111 0
0.891261 0.0182599 0
0.886479 0.0144611 0
1.26322 0.00748748 0
1.24843 -0.00797247 0
1.23577 -0.0269958 0
1.08755 0.00593411 0
1.0726 -0.00564816 0
1.05762 -0.0192702 0
0.886479 0.0144611 0
0.874223 0.00755874 0
0.860862 -0.000729684 0
0.897955 0.0201111 0
0.891261 0.0182599 0
0.886479 0.0144611 0
0.521762 0.00791689 0
0.5254 0.00730254 0
0.532506 0.00624683 0
0 0 0
0 0 0
0 0 0
0.886479 0.0144611 0
0.874223 0.00755874 0
0.860862 -0.000729684 0
0.532506 0.00624683 0
0.533016 0.00419008 0
0.532911 0.00153696 0
0 0 0
0 0 0
0 0 0
1.23577 -0.0269958 0
1.20754 -0.0492242 0
1.17765 -0.0709104 0
1.05762 -0.0192702 0
1.0325 -0.0347659 0
1.0042 -0.0495971 0
0.860862 -0.000729684 0
0.839299 -0.0105987 0
0.814565 -0.0203255 0
1.17765 -0.0709104 0
1.13478 -0.0901675 0
1.08782 -0.105832 0
1.0042 -0.0495971 0
0.968629 -0.0632927 0
0.929054 -0.0747443 0
0.814565 -0.0203255 0
0.78354 -0.0293073 0
0.747828 -0.0365499 0
0.860862 -0.000729684 0
0.839299 -0.0105987 0
0.814565 -0.0203255 0
0.532911 0.00153696 0
0.525693 -0.00151783 0
0.513926 -0.00497691 0
0 0 0
0 0 0
0 0 0
0.814565 -0.0203255 0
0.78354 -0.0293073 0
0.747828 -0.0365499 0
0.513926 -0.00497691 0
0.49713 -0.00810563 0
0.473673 -0.0110165 0
0 0 0
0 0 0
0 0 0
1.74783 -0.21354 0
1.63529 -0.242323 0
1.54118 -0.250596 0
1.76387 -0.0813646 0
1.65738 -0.136228 0
1.56736 -0.174113 0
1.621 -0.0323583 0
1.59626 -0.0835531 0
1.55458 -0.122011 0
1.54118 -0.250596 0
1.45865 -0.170025 0
1.39086 -0.0821266 0
1.56736 -0.174113 0
1.4835 -0.160015 0
1.43767 -0.12015 0
1.55458 -0.122011 0
1.51315 -0.113186 0
1.46743 -0.0819895 0
1.621 -0.0323583 0
1.59626 -0.0835531 0
1.55458 -0.122011 0
1.49569 0.00352837 0
1.45991 -0.0243557 0
1.42529 -0.0458893 0
1.31221 0.0283187 0
1.2992 0.00356153 0
1.28194 -0.017533 0
1.55458 -0.122011 0
1.51315 -0.113186 0
1.46743 -0.0819895 0
1.42529 -0.0458893 0
1.37838 -0.0445492 0
1.345 -0.0382144 0
1.28194 -0.017533 0
1.26881 -0.0244311 0
1.26026 -0.0250386 0
1.39086 -0.0821266 0
1.35713 0.0255143 0
1.38755 0.101136 0
1.43767 -0.12015 0
1.44633 -0.0382961 0
1.48462 0.0316548 0
1.46743 -0.0819895 0
1.43022 -0.0266457 0
1.41939 0.0202518 0
1.38755 0.101136 0
1.47812 0.18738 0
1.6043 0.235605 0
1.48462 0.0316548 0
1.53979 0.087077 0
1.61875 0.109679 0
1.41939 0.0202518 0
1.44274 0.0656922 0
1.48963 0.0915155 0
1.46743 -0.0819895 0
1.43022 -0.0266457 0
1.41939 0.0202518 0
1.345 -0.0382144 0
1.32235 -0.0185486 0
1.32095 0.000931099 0
1.26026 -0.0250386 0
1.25129 -0.0135739 0
1.25092 -0.00114645 0
1.41939 0.0202518 0
1.44274 0.0656922 0
1.48963 0.0915155 0
1.32095 0.000931099 0
1.3315 0.0201803 0
1.36142 0.0275771 0
1.25092 -0.00114645 0
1.25528 0.012166 0
1.26894 0.0179764 0
1.31221 0.0283187 0
1.2992 0.00356153 0
1.28194 -0.017533 0
1.11771 0.0301931 0
1.12336 0.017163 0
1.12498 0.0063029 0
0.802277 0.0257366 0
0.825155 0.0191969 0
0.842227 0.0136024 0
1.28194 -0.017533 0
1.26881 -0.0244311 0
1.26026 -0.0250386 0
1.12498 0.0063029 0
1.11672 0.00315501 0
1.11061 0.00251119 0
0.842227 0.0136024 0
0.852552 0.0109264 0
0.862807 0.0099332 0
0.802277 0.0257366 0
0.825155 0.0191969 0
0.842227 0.0136024 0
0.415726 0.0039034 0
0.424668 0.00391126 0
0.440946 0.00362183 0
0 0 0
0 0 0
0 0 0
0.842227 0.0136024 0
0.852552 0.0109264 0
0.862807 0.0099332 0
0.440946 0.00362183 0
0.450043 0.00387579 0
0.463988 0.00421703 0
0 0 0
0 0 0
0 0 0
1.26026 -0.0250386 0
1.25129 -0.0135739 0
1.25092 -0.00114645 0
1.11061 0.00251119 0
1.10159 0.00608561 0
1.09985 0.0107508 0
0.862807 0.0099332 0
0.870325 0.0120251 0
0.880325 0.0151726 0
1.25092 -0.00114645 0
1.25528 0.012166 0
1.26894 0.0179764 0
1.09985 0.0107508 0
1.09813 0.0150004 0
1.10462 0.0162221 0
0.880325 0.0151726 0
0.88792 0.0187182 0
0.897955 0.0201111 0
0.862807 0.0099332 0
0.870325 0.0120251 0
0.880325 0.0151726 0
0.463988 0.00421703 0
0.473671 0.00520734 0
0.490021 0.00642167 0
0 0 0
0 0 0
0 0 0
0.880325 0.0151726 0
0.88792 0.0187182 0
0.897955 0.0201111 0
0.490021 0.00642167 0
0.502621 0.00710008 0
0.521762 0.00791689 0
0 0 0
0 0 0
0 0 0
0.860377 -1.30728 0
0.807426 -1.46845 0
0.726824 -1.38204 0
0.726636 -1.22408 0
0.597072 -1.34898 0
0.452311 -1.27159 0
0.645599 -1.12027 0
0.44706 -1.19807 0
0.263119 -1.14429 0
0.726824 -1.38204 0
0.589666 -1.26168 0
0.537574 -0.760083 0
0.452311 -1.27159 0
0.282347 -1.05321 0
0.210674 -0.43797 0
0.263119 -1.14429 0
0.0507829 -0.905062 0
-0.0870566 -0.304889 0
0.645599 -1.12027 0
0.44706 -1.19807 0
0.263119 -1.14429 0
0.636159 -0.952563 0
0.375504 -0.950223 0
0.187101 -0.98891 0
0.636838 -0.763737 0
0.420966 -0.677117 0
0.176621 -0.760006 0
0.263119 -1.14429 0
0.0507829 -0.905062 0
-0.0870566 -0.304889 0
0.187101 -0.98891 0
-0.0682541 -0.631285 0
-0.219176 -0.0653493 0
0.176621 -0.760006 0
-0.0696094 -0.43894 0
-0.210243 0.0385016 0
0.537574 -0.760083 0
0.319834 -0.255843 0
0.201129 0.26767 0
0.210674 -0.43797 0
-0.0367453 -0.0146546 0
-0.221213 0.366629 0
-0.0870566 -0.304889 0
-0.35106 0.0786962 0
-0.546162 0.560427 0
0.201129 0.26767 0
0.012867 0.680998 0
-0.203259 1.00935 0
-0.221213 0.366629 0
-0.346419 0.82229 0
-0.472554 1.09911 0
-0.546162 0.560427 0
-0.6112 0.963394 0
-0.640406 1.13373 0
-0.0870566 -0.304889 0
-0.35106 0.0786962 0
-0.546162 0.560427 0
-0.219176 -0.0653493 0
-0.422619 0.37924 0
-0.529184 0.754451 0
-0.210243 0.0385016 0
-0.294414 0.328424 0
-0.356282 0.613885 0
-0.546162 0.560427 0
-0.6112 0.963394 0
-0.640406 1.13373 0
-0.529184 0.754451 0
-0.59826 1.0289 0
-0.452603 1.08641 0
-0.356282 0.613885 0
-0.191812 0.939789 0
0.104424 0.899977 0
0.636838 -0.763737 0
0.420966 -0.677117 0
0.176621 -0.760006 0
0.671671 -0.66685 0
0.470332 -0.548705 0
0.225422 -0.595096 0
0.977004 -0.484686 0
0.783948 -0.389527 0
0.548182 -0.349748 0
0.176621 -0.760006 0
-0.0696094 -0.43894 0
-0.210243 0.0385016 0
0.225422 -0.595096 0
0.0959269 -0.264479 0
0.0172836 0.124423 0
0.548182 -0.349748 0
0.541192 -0.0578656 0
0.478915 0.1018 0
0.977004 -0.484686 0
0.783948 -0.389527 0
0.548182 -0.349748 0
1.3389 -0.312115 0
1.20384 -0.326369 0
1.02629 -0.334395 0
1.74783 -0.21354 0
1.63529 -0.242323 0
1.54118 -0.250596 0
0.548182 -0.349748 0
0.541192 -0.0578656 0
0.478915 0.1018 0
1.02629 -0.334395 0
1.03857 -0.217996 0
1.03121 -0.129794 0
1.54118 -0.250596 0
1.45865 -0.170025 0
1.39086 -0.0821266 0
-0.210243 0.0385016 0
-0.294414 0.328424 0
-0.356282 0.613885 0
0.0172836 0.124423 0
0.0740496 0.381131 0
0.256125 0.665087 0
0.478915 0.1018 0
0.707057 0.248691 0
0.86208 0.305554 0
-0.356282 0.613885 0
-0.191812 0.939789 0
0.104424 0.899977 0
0.256125 0.665087 0
0.525002 0.75499 0
0.68178 0.715312 0
0.86208 0.305554 0
1.12512 0.468807 0
1.33106 0.517782 0
0.478915 0.1018 0
0.707057 0.248691 0
0.86208 0.305554 0
1.03121 -0.129794 0
1.18091 0.0376431 0
1.29433 0.195584 0
1.39086 -0.0821266 0
1.35713 0.0255143 0
1.38755 0.101136 0
0.86208 0.305554 0
1.12512 0.468807 0
1.33106 0.517782 0
1.29433 0.195584 0
1.44823 0.316684 0
1.61736 0.37752 0
1.38755 0.101136 0
1.47812 0.18738 0
1.6043 0.235605 0
1.22193 -0.50177 0
1.39089 -0.583689 0
1.61169 -0.635531 0
1.32207 -0.661719 0
1.50643 -0.755197 0
1.67249 -0.795598 0
1.39753 -0.824686 0
1.52798 -0.887569 0
1.6211 -0.910724 0
1.61169 -0.635531 0
1.80369 -0.644382 0
1.92648 -0.58613 0
1.67249 -0.795598 0
1.76611 -0.782078 0
1.89262 -0.75575 0
1.6211 -0.910724 0
1.80677 -0.934365 0
2.11197 -0.925853 0
1.39753 -0.824686 0
1.52798 -0.887569 0
1.6211 -0.910724 0
1.37643 -0.96545 0
1.47688 -0.9643 0
1.62775 -1.08727 0
1.29124 -1.01308 0
1.44978 -1.08606 0
1.67481 -1.3198 0
1.6211 -0.910724 0
1.80677 -0.934365 0
2.11197 -0.925853 0
1.62775 -1.08727 0
1.9242 -1.15068 0
2.07762 -1.05349 0
1.67481 -1.3198 0
1.8229 -1.27247 0
1.7603 -1.05736 0
1.92648 -0.58613 0
1.97769 -0.50477 0
2.04667 -0.406006 0
1.89262 -0.75575 0
2.08058 -0.688837 0
2.24213 -0.554302 0
2.11197 -0.925853 0
2.27897 -0.764395 0
2.27863 -0.543693 0
2.04667 -0.406006 0
2.10772 -0.287426 0
2.15552 -0.153338 0
2.24213 -0.554302 0
2.29114 -0.36684 0
2.27656 -0.16518 0
2.27863 -0.543693 0
2.09232 -0.306431 0
1.82776 -0.0949823 0
2.11197 -0.925853 0
2.27897 -0.764395 0
2.27863 -0.543693 0
2.07762 -1.05349 0
1.98584 -0.79163 0
1.81098 -0.479874 0
1.7603 -1.05736 0
1.64096 -0.74894 0
1.48286 -0.319761 0
2.27863 -0.543693 0
2.09232 -0.306431 0
1.82776 -0.0949823 0
1.81098 -0.479874 0
1.53621 -0.120707 0
1.24233 0.134589 0
1.48286 -0.319761 0
1.22409 0.0669238 0
0.937577 0.393156 0
1.29124 -1.01308 0
1.44978 -1.08606 0
1.67481 -1.3198 0
1.17645 -1.10582 0
1.38528 -1.3278 0
1.50131 -1.45833 0
1.07549 -1.21843 0
1.24427 -1.49363 0
1.26641 -1.49707 0
1.67481 -1.3198 0
1.8229 -1.27247 0
1.7603 -1.05736 0
1.50131 -1.45833 0
1.51759 -1.30097 0
1.52017 -1.03486 0
1.26641 -1.49707 0
1.27122 -1.34032 0
1.26896 -0.93359 0
1.07549 -1.21843 0
1.24427 -1.49363 0
1.26641 -1.49707 0
0.960197 -1.28828 0
1.04093 -1.51362 0
1.00494 -1.43733 0
0.860377 -1.30728 0
0.807426 -1.46845 0
0.726824 -1.38204 0
1.26641 -1.49707 0
1.27122 -1.34032 0
1.26896 -0.93359 0
1.00494 -1.43733 0
0.941637 -1.27319 0
0.837495 -0.795694 0
0.726824 -1.38204 0
0.589666 -1.26168 0
0.537574 -0.760083 0
1.7603 -1.05736 0
1.64096 -0.74894 0
1.48286 -0.319761 0
1.52017 -1.03486 0
1.4016 -0.600185 0
1.20361 -0.107907 0
1.26896 -0.93359 0
0.974989 -0.399838 0
0.811276 0.0359825 0
1.48286 -0.319761 0
1.22409 0.0669238 0
0.937577 0.393156 0
1.20361 -0.107907 0
0.988728 0.213356 0
0.721826 0.574943 0
0.811276 0.0359825 0
0.599932 0.369032 0
0.372881 0.764485 0
1.26896 -0.93359 0
0.974989 -0.399838 0
0.811276 0.0359825 0
0.837495 -0.795694 0
0.585586 -0.341621 0
0.521165 0.120432 0
0.537574 -0.760083 0
0.319834 -0.255843 0
0.201129 0.26767 0
0.811276 0.0359825 0
0.599932 0.369032 0
0.372881 0.764485 0
0.521165 0.120432 0
0.316372 0.476255 0
0.0867892 0.830562 0
0.201129 0.26767 0
0.012867 0.680998 0
-0.203259 1.00935 0
0 0 0
0 0 0
0 0 0
0.181939 -0.0210131 0
0.236445 -0.0237321 0
0.270303 -0.0254339 0
0.444735 -0.0519866 0
0.501702 -0.0667496 0
0.550997 -0.0794602 0
0 0 0
0 0 0
0 0 0
0.270303 -0.0254339 0