# vtk DataFile Version 3.0
#This file was generated by the deal.II library on 2025/1/4 at 9:51:03
ASCII
DATASET UNSTRUCTURED_GRID

POINTS 8640 double
1.1 1.1 0
0.9625 1.09063 0
0.825 1.08125 0
1.0875 0.9625 0
0.951563 0.954297 0
0.815625 0.946094 0
1.075 0.825 0
0.940625 0.817969 0
0.80625 0.810937 0
0.825 1.08125 0
0.6875 1.07187 0
0.55 1.0625 0
0.815625 0.946094 0
0.679688 0.937891 0
0.54375 0.929688 0
0.80625 0.810937 0
0.671875 0.803906 0
0.5375 0.796875 0
1.075 0.825 0
0.940625 0.817969 0
0.80625 0.810937 0
1.0625 0.6875 0
0.929688 0.681641 0
0.796875 0.675781 0
1.05 0.55 0
0.91875 0.545313 0
0.7875 0.540625 0
0.80625 0.810937 0
0.671875 0.803906 0
0.5375 0.796875 0
0.796875 0.675781 0
0.664062 0.669922 0
0.53125 0.664062 0
0.7875 0.540625 0
0.65625 0.535937 0
0.525 0.53125 0
0.55 1.0625 0
0.4125 1.05313 0
0.275 1.04375 0
0.54375 0.929688 0
0.407813 0.921484 0
0.271875 0.913281 0
0.5375 0.796875 0
0.403125 0.789844 0
0.26875 0.782813 0
0.275 1.04375 0
0.1375 1.03437 0
0 1.025 0
0.271875 0.913281 0
0.135938 0.905078 0
0 0.896875 0
0.26875 0.782813 0
0.134375 0.775781 0
0 0.76875 0
0.5375 0.796875 0
0.403125 0.789844 0
0.26875 0.782813 0
0.53125 0.664062 0
0.398438 0.658203 0
0.265625 0.652344 0
0.525 0.53125 0
0.39375 0.526563 0
0.2625 0.521875 0
0.26875 0.782813 0
0.134375 0.775781 0
0 0.76875 0
0.265625 0.652344 0
0.132812 0.646484 0
0 0.640625 0
0.2625 0.521875 0
0.13125 0.517187 0
0 0.5125 0
1.05 0.55 0
0.91875 0.545313 0
0.7875 0.540625 0
1.0375 0.4125 0
0.907812 0.408984 0
0.778125 0.405469 0
1.025 0.275 0
0.896875 0.272656 0
0.76875 0.270313 0
0.7875 0.540625 0
0.65625 0.535937 0
0.525 0.53125 0
0.778125 0.405469 0
0.648438 0.401953 0
0.51875 0.398438 0
0.76875 0.270313 0
0.640625 0.267969 0
0.5125 0.265625 0
1.025 0.275 0
0.896875 0.272656 0
0.76875 0.270313 0
1.0125 0.1375 0
0.885937 0.136328 0
0.759375 0.135156 0
1 0 0
0.875 0 0
0.75 0 0
0.76875 0.270313 0
0.640625 0.267969 0
0.5125 0.265625 0
0.759375 0.135156 0
0.632812 0.133984 0
0.50625 0.132812 0
0.75 0 0
0.625 0 0
0.5 0 0
0.525 0.53125 0
0.39375 0.526563 0
0.2625 0.521875 0
0.51875 0.398438 0
0.389062 0.394922 0
0.259375 0.391406 0
0.5125 0.265625 0
0.384375 0.263281 0
0.25625 0.260937 0
0.2625 0.521875 0
0.13125 0.517187 0
0 0.5125 0
0.259375 0.391406 0
0.129688 0.387891 0
0 0.384375 0
0.25625 0.260937 0
0.128125 0.258594 0
0 0.25625 0
0.5125 0.265625 0
0.384375 0.263281 0
0.25625 0.260937 0
0.50625 0.132812 0
0.379687 0.131641 0
0.253125 0.130469 0
0.5 0 0
0.375 0 0
0.25 0 0
0.25625 0.260937 0
0.128125 0.258594 0
0 0.25625 0
0.253125 0.130469 0
0.126562 0.129297 0
0 0.128125 0
0.25 0 0
0.125 0 0
0 0 0
2 1 0
1.8875 1.0125 0
1.775 1.025 0
2 0.875 0
1.88594 0.885938 0
1.77188 0.896875 0
2 0.75 0
1.88437 0.759375 0
1.76875 0.76875 0
1.775 1.025 0
1.6625 1.0375 0
1.55 1.05 0
1.77188 0.896875 0
1.65781 0.907813 0
1.54375 0.91875 0
1.76875 0.76875 0
1.65313 0.778125 0
1.5375 0.7875 0
2 0.75 0
1.88437 0.759375 0
1.76875 0.76875 0
2 0.625 0
1.88281 0.632812 0
1.76562 0.640625 0
2 0.5 0
1.88125 0.50625 0
1.7625 0.5125 0
1.76875 0.76875 0
1.65313 0.778125 0
1.5375 0.7875 0
1.76562 0.640625 0
1.64844 0.648438 0
1.53125 0.65625 0
1.7625 0.5125 0
1.64375 0.51875 0
1.525 0.525 0
1.55 1.05 0
1.4375 1.0625 0
1.325 1.075 0
1.54375 0.91875 0
1.42969 0.929688 0
1.31563 0.940625 0
1.5375 0.7875 0
1.42188 0.796875 0
1.30625 0.80625 0
1.325 1.075 0
1.2125 1.0875 0
1.1 1.1 0
1.31563 0.940625 0
1.20156 0.951563 0
1.0875 0.9625 0
1.30625 0.80625 0
1.19063 0.815625 0
1.075 0.825 0
1.5375 0.7875 0
1.42188 0.796875 0
1.30625 0.80625 0
1.53125 0.65625 0
1.41406 0.664062 0
1.29688 0.671875 0
1.525 0.525 0
1.40625 0.53125 0
1.2875 0.5375 0
1.30625 0.80625 0
1.19063 0.815625 0
1.075 0.825 0
1.29688 0.671875 0
1.17969 0.679688 0
1.0625 0.6875 0
1.2875 0.5375 0
1.16875 0.54375 0
1.05 0.55 0
2 0.5 0
1.88125 0.50625 0
1.7625 0.5125 0
2 0.375 0
1.87969 0.379687 0
1.75938 0.384375 0
2 0.25 0
1.87813 0.253125 0
1.75625 0.25625 0
1.7625 0.5125 0
1.64375 0.51875 0
1.525 0.525 0
1.75938 0.384375 0
1.63906 0.389063 0
1.51875 0.39375 0
1.75625 0.25625 0
1.63438 0.259375 0
1.5125 0.2625 0
2 0.25 0
1.87813 0.253125 0
1.75625 0.25625 0
2 0.125 0
1.87656 0.126562 0
1.75313 0.128125 0
2 0 0
1.875 0 0
1.75 0 0
1.75625 0.25625 0
1.63438 0.259375 0
1.5125 0.2625 0
1.75313 0.128125 0
1.62969 0.129688 0
1.50625 0.13125 0
1.75 0 0
1.625 0 0
1.5 0 0
1.525 0.525 0
1.40625 0.53125 0
1.2875 0.5375 0
1.51875 0.39375 0
1.39844 0.398438 0
1.27813 0.403125 0
1.5125 0.2625 0
1.39062 0.265625 0
1.26875 0.26875 0
1.2875 0.5375 0
1.16875 0.54375 0
1.05 0.55 0
1.27813 0.403125 0
1.15781 0.407813 0
1.0375 0.4125 0
1.26875 0.26875 0
1.14688 0.271875 0
1.025 0.275 0
1.5125 0.2625 0
1.39062 0.265625 0
1.26875 0.26875 0
1.50625 0.13125 0
1.38281 0.132812 0
1.25937 0.134375 0
1.5 0 0
1.375 0 0
1.25 0 0
1.26875 0.26875 0
1.14688 0.271875 0
1.025 0.275 0
1.25937 0.134375 0
1.13594 0.135938 0
1.0125 0.1375 0
1.25 0 0
1.125 0 0
1 0 0
1 2 0
0.875 2.00625 0
0.75 2.0125 0
1.0125 1.8875 0
0.885938 1.8918 0
0.759375 1.89609 0
1.025 1.775 0
0.896875 1.77734 0
0.76875 1.77969 0
0.75 2.0125 0
0.625 2.01875 0
0.5 2.025 0
0.759375 1.89609 0
0.632812 1.90039 0
0.50625 1.90469 0
0.76875 1.77969 0
0.640625 1.78203 0
0.5125 1.78437 0
1.025 1.775 0
0.896875 1.77734 0
0.76875 1.77969 0
1.0375 1.6625 0
0.907813 1.66289 0
0.778125 1.66328 0
1.05 1.55 0
0.91875 1.54844 0
0.7875 1.54688 0
0.76875 1.77969 0
0.640625 1.78203 0
0.5125 1.78437 0
0.778125 1.66328 0
0.648438 1.66367 0
0.51875 1.66406 0
0.7875 1.54688 0
0.65625 1.54531 0
0.525 1.54375 0
0.5 2.025 0
0.375 2.03125 0
0.25 2.0375 0
0.50625 1.90469 0
0.379687 1.90898 0
0.253125 1.91328 0
0.5125 1.78437 0
0.384375 1.78672 0
0.25625 1.78906 0
0.25 2.0375 0
0.125 2.04375 0
0 2.05 0
0.253125 1.91328 0
0.126562 1.91758 0
0 1.92187 0
0.25625 1.78906 0
0.128125 1.79141 0
0 1.79375 0
0.5125 1.78437 0
0.384375 1.78672 0
0.25625 1.78906 0
0.51875 1.66406 0
0.389062 1.66445 0
0.259375 1.66484 0
0.525 1.54375 0
0.39375 1.54219 0
0.2625 1.54062 0
0.25625 1.78906 0
0.128125 1.79141 0
0 1.79375 0
0.259375 1.66484 0
0.129688 1.66523 0
0 1.66562 0
0.2625 1.54062 0
0.13125 1.53906 0
0 1.5375 0
1.05 1.55 0
0.91875 1.54844 0
0.7875 1.54688 0
1.0625 1.4375 0
0.929688 1.43398 0
0.796875 1.43047 0
1.075 1.325 0
0.940625 1.31953 0
0.80625 1.31406 0
0.7875 1.54688 0
0.65625 1.54531 0
0.525 1.54375 0
0.796875 1.43047 0
0.664062 1.42695 0
0.53125 1.42344 0
0.80625 1.31406 0
0.671875 1.30859 0
0.5375 1.30312 0
1.075 1.325 0
0.940625 1.31953 0
0.80625 1.31406 0
1.0875 1.2125 0
0.951563 1.20508 0
0.815625 1.19766 0
1.1 1.1 0
0.9625 1.09063 0
0.825 1.08125 0
0.80625 1.31406 0
0.671875 1.30859 0
0.5375 1.30312 0
0.815625 1.19766 0
0.679688 1.19023 0
0.54375 1.18281 0
0.825 1.08125 0
0.6875 1.07187 0
0.55 1.0625 0
0.525 1.54375 0
0.39375 1.54219 0
0.2625 1.54062 0
0.53125 1.42344 0
0.398438 1.41992 0
0.265625 1.41641 0
0.5375 1.30312 0
0.403125 1.29766 0
0.26875 1.29219 0
0.2625 1.54062 0
0.13125 1.53906 0
0 1.5375 0
0.265625 1.41641 0
0.132812 1.41289 0
0 1.40937 0
0.26875 1.29219 0
0.134375 1.28672 0
0 1.28125 0
0.5375 1.30312 0
0.403125 1.29766 0
0.26875 1.29219 0
0.54375 1.18281 0
0.407813 1.17539 0
0.271875 1.16797 0
0.55 1.0625 0
0.4125 1.05313 0
0.275 1.04375 0
0.26875 1.29219 0
0.134375 1.28672 0
0 1.28125 0
0.271875 1.16797 0
0.135938 1.16055 0
0 1.15312 0
0.275 1.04375 0
0.1375 1.03437 0
0 1.025 0
2.9 1.1 0
2.7875 1.0875 0
2.675 1.075 0
2.9125 0.9625 0
2.79844 0.951563 0
2.68438 0.940625 0
2.925 0.825 0
2.80938 0.815625 0
2.69375 0.80625 0
2.675 1.075 0
2.5625 1.0625 0
2.45 1.05 0
2.68438 0.940625 0
2.57031 0.929688 0
2.45625 0.91875 0
2.69375 0.80625 0
2.57812 0.796875 0
2.4625 0.7875 0
2.925 0.825 0
2.80938 0.815625 0
2.69375 0.80625 0
2.9375 0.6875 0
2.82031 0.679688 0
2.70312 0.671875 0
2.95 0.55 0
2.83125 0.54375 0
2.7125 0.5375 0
2.69375 0.80625 0
2.57812 0.796875 0
2.4625 0.7875 0
2.70312 0.671875 0
2.58594 0.664062 0
2.46875 0.65625 0
2.7125 0.5375 0
2.59375 0.53125 0
2.475 0.525 0
2.45 1.05 0
2.3375 1.0375 0
2.225 1.025 0
2.45625 0.91875 0
2.34219 0.907813 0
2.22813 0.896875 0
2.4625 0.7875 0
2.34688 0.778125 0
2.23125 0.76875 0
2.225 1.025 0
2.1125 1.0125 0
2 1 0
2.22813 0.896875 0
2.11406 0.885938 0
2 0.875 0
2.23125 0.76875 0
2.11563 0.759375 0
2 0.75 0
2.4625 0.7875 0
2.34688 0.778125 0
2.23125 0.76875 0
2.46875 0.65625 0
2.35156 0.648438 0
2.23438 0.640625 0
2.475 0.525 0
2.35625 0.51875 0
2.2375 0.5125 0
2.23125 0.76875 0
2.11563 0.759375 0
2 0.75 0
2.23438 0.640625 0
2.11719 0.632812 0
2 0.625 0
2.2375 0.5125 0
2.11875 0.50625 0
2 0.5 0
2.95 0.55 0
2.83125 0.54375 0
2.7125 0.5375 0
2.9625 0.4125 0
2.84219 0.407813 0
2.72188 0.403125 0
2.975 0.275 0
2.85313 0.271875 0
2.73125 0.26875 0
2.7125 0.5375 0
2.59375 0.53125 0
2.475 0.525 0
2.72188 0.403125 0
2.60156 0.398438 0
2.48125 0.39375 0
2.73125 0.26875 0
2.60938 0.265625 0
2.4875 0.2625 0
2.975 0.275 0
2.85313 0.271875 0
2.73125 0.26875 0
2.9875 0.1375 0
2.86406 0.135938 0
2.74063 0.134375 0
3 0 0
2.875 0 0
2.75 0 0
2.73125 0.26875 0
2.60938 0.265625 0
2.4875 0.2625 0
2.74063 0.134375 0
2.61719 0.132812 0
2.49375 0.13125 0
2.75 0 0
2.625 0 0
2.5 0 0
2.475 0.525 0
2.35625 0.51875 0
2.2375 0.5125 0
2.48125 0.39375 0
2.36094 0.389063 0
2.24062 0.384375 0
2.4875 0.2625 0
2.36562 0.259375 0
2.24375 0.25625 0
2.2375 0.5125 0
2.11875 0.50625 0
2 0.5 0
2.24062 0.384375 0
2.12031 0.379687 0
2 0.375 0
2.24375 0.25625 0
2.12188 0.253125 0
2 0.25 0
2.4875 0.2625 0
2.36562 0.259375 0
2.24375 0.25625 0
2.49375 0.13125 0
2.37031 0.129688 0
2.24688 0.128125 0
2.5 0 0
2.375 0 0
2.25 0 0
2.24375 0.25625 0
2.12188 0.253125 0
2 0.25 0
2.24688 0.128125 0
2.12344 0.126562 0
2 0.125 0
2.25 0 0
2.125 0 0
2 0 0
4 1 0
3.8625 1.0125 0
3.725 1.025 0
4 0.875 0
3.86406 0.885938 0
3.72813 0.896875 0
4 0.75 0
3.86563 0.759375 0
3.73125 0.76875 0
3.725 1.025 0
3.5875 1.0375 0
3.45 1.05 0
3.72813 0.896875 0
3.59219 0.907813 0
3.45625 0.91875 0
3.73125 0.76875 0
3.59688 0.778125 0
3.4625 0.7875 0
4 0.75 0
3.86563 0.759375 0
3.73125 0.76875 0
4 0.625 0
3.86719 0.632812 0
[...]
POINT_DATA 8640
VECTORS v double
1.22603 -0.291592 0
1.20488 -0.236172 0
1.18431 -0.182302 0
1.1561 -0.262136 0
1.12408 -0.213341 0
1.10228 -0.170305 0
1.06942 -0.229673 0
1.0355 -0.188486 0
1.00672 -0.150648 0
1.18431 -0.182302 0
1.17223 -0.141799 0
1.15956 -0.102814 0
1.10228 -0.170305 0
1.08068 -0.131506 0
1.06709 -0.0985038 0
1.00672 -0.150648 0
0.981646 -0.116939 0
0.962475 -0.087511 0
1.06942 -0.229673 0
1.0355 -0.188486 0
1.00672 -0.150648 0
0.960078 -0.183176 0
0.92153 -0.151475 0
0.88927 -0.122562 0
0.828624 -0.14419 0
0.78987 -0.120366 0
0.757203 -0.0980852 0
1.00672 -0.150648 0
0.981646 -0.116939 0
0.962475 -0.087511 0
0.88927 -0.122562 0
0.861883 -0.0964285 0
0.840234 -0.0724875 0
0.757203 -0.0980852 0
0.72908 -0.0772778 0
0.706902 -0.0582481 0
1.15956 -0.102814 0
1.15065 -0.0735089 0
1.14039 -0.0444376 0
1.06709 -0.0985038 0
1.05206 -0.0697135 0
1.04306 -0.0439108 0
0.962475 -0.087511 0
0.945365 -0.0614061 0
0.933802 -0.0385514 0
1.14039 -0.0444376 0
1.13344 -0.0219726 0
1.125 0 0
1.04306 -0.0439108 0
1.03209 -0.0207607 0
1.02539 0 0
0.933802 -0.0385514 0
0.921486 -0.0180584 0
0.914062 0 0
0.962475 -0.087511 0
0.945365 -0.0614061 0
0.933802 -0.0385514 0
0.840234 -0.0724875 0
0.822378 -0.0508815 0
0.8096 -0.0322118 0
0.706902 -0.0582481 0
0.688189 -0.0411724 0
0.674703 -0.0262188 0
0.933802 -0.0385514 0
0.921486 -0.0180584 0
0.914062 0 0
0.8096 -0.0322118 0
0.798318 -0.0156236 0
0.791016 0 0
0.674703 -0.0262188 0
0.663329 -0.0127087 0
0.65625 0 0
0.828624 -0.14419 0
0.78987 -0.120366 0
0.757203 -0.0980852 0
0.681819 -0.0988286 0
0.642127 -0.082335 0
0.608449 -0.0667332 0
0.512599 -0.059145 0
0.474615 -0.0495878 0
0.442525 -0.0406685 0
0.757203 -0.0980852 0
0.72908 -0.0772778 0
0.706902 -0.0582481 0
0.608449 -0.0667332 0
0.579734 -0.0523099 0
0.557187 -0.0392863 0
0.442525 -0.0406685 0
0.415278 -0.0323645 0
0.394114 -0.0248807 0
0.512599 -0.059145 0
0.474615 -0.0495878 0
0.442525 -0.0406685 0
0.30061 -0.0178406 0
0.270752 -0.0145178 0
0.247148 -0.0116609 0
0 0 0
0 0 0
0 0 0
0.442525 -0.0406685 0
0.415278 -0.0323645 0
0.394114 -0.0248807 0
0.247148 -0.0116609 0
0.226415 -0.00895527 0
0.211171 -0.00667314 0
0 0 0
0 0 0
0 0 0
0.706902 -0.0582481 0
0.688189 -0.0411724 0
0.674703 -0.0262188 0
0.557187 -0.0392863 0
0.538626 -0.0275623 0
0.525517 -0.0171053 0
0.394114 -0.0248807 0
0.37694 -0.0179813 0
0.365147 -0.0118042 0
0.674703 -0.0262188 0
0.663329 -0.0127087 0
0.65625 0 0
0.525517 -0.0171053 0
0.515435 -0.00779908 0
0.509766 0 0
0.365147 -0.0118042 0
0.356331 -0.00604242 0
0.351562 0 0
0.394114 -0.0248807 0
0.37694 -0.0179813 0
0.365147 -0.0118042 0
0.211171 -0.00667314 0
0.198607 -0.00453244 0
0.190453 -0.00273781 0
0 0 0
0 0 0
0 0 0
0.365147 -0.0118042 0
0.356331 -0.00604242 0
0.351562 0 0
0.190453 -0.00273781 0
0.184408 -0.00111176 0
0.181641 0 0
0 0 0
0 0 0
0 0 0
1.68642 -0.531267 0
1.60098 -0.548345 0
1.52683 -0.540073 0
1.57526 -0.448619 0
1.49951 -0.453463 0
1.43008 -0.450354 0
1.45721 -0.366118 0
1.39589 -0.377613 0
1.33301 -0.378222 0
1.52683 -0.540073 0
1.44778 -0.517059 0
1.38024 -0.479485 0
1.43008 -0.450354 0
1.3604 -0.434351 0
1.30002 -0.411104 0
1.33301 -0.378222 0
1.27633 -0.369647 0
1.21987 -0.351086 0
1.45721 -0.366118 0
1.39589 -0.377613 0
1.33301 -0.378222 0
1.35916 -0.290657 0
1.29839 -0.295666 0
1.23708 -0.294002 0
1.21562 -0.211688 0
1.15554 -0.217017 0
1.09495 -0.217875 0
1.33301 -0.378222 0
1.27633 -0.369647 0
1.21987 -0.351086 0
1.23708 -0.294002 0
1.17804 -0.285833 0
1.1207 -0.271516 0
1.09495 -0.217875 0
1.03903 -0.214489 0
0.98518 -0.206561 0
1.38024 -0.479485 0
1.32364 -0.437868 0
1.28079 -0.387513 0
1.30002 -0.411104 0
1.24983 -0.377914 0
1.20973 -0.341592 0
1.21987 -0.351086 0
1.17405 -0.325629 0
1.13164 -0.295127 0
1.28079 -0.387513 0
1.249 -0.341405 0
1.22603 -0.291592 0
1.20973 -0.341592 0
1.17782 -0.301351 0
1.1561 -0.262136 0
1.13164 -0.295127 0
1.09823 -0.262736 0
1.06942 -0.229673 0
1.21987 -0.351086 0
1.17405 -0.325629 0
1.13164 -0.295127 0
1.1207 -0.271516 0
1.07201 -0.253096 0
1.02747 -0.231387 0
0.98518 -0.206561 0
0.938775 -0.194874 0
0.896273 -0.180129 0
1.13164 -0.295127 0
1.09823 -0.262736 0
1.06942 -0.229673 0
1.02747 -0.231387 0
0.991098 -0.208162 0
0.960078 -0.183176 0
0.896273 -0.180129 0
0.860023 -0.163012 0
0.828624 -0.14419 0
1.21562 -0.211688 0
1.15554 -0.217017 0
1.09495 -0.217875 0
1.06989 -0.150989 0
1.01317 -0.154808 0
0.955026 -0.155069 0
0.901871 -0.0845888 0
0.84628 -0.0876931 0
0.788039 -0.0885812 0
1.09495 -0.217875 0
1.03903 -0.214489 0
0.98518 -0.206561 0
0.955026 -0.155069 0
0.900725 -0.151755 0
0.846995 -0.144998 0
0.788039 -0.0885812 0
0.733896 -0.0872762 0
0.67984 -0.0838975 0
0.901871 -0.0845888 0
0.84628 -0.0876931 0
0.788039 -0.0885812 0
0.610407 -0.0271161 0
0.56892 -0.0285049 0
0.52293 -0.028858 0
0 0 0
0 0 0
0 0 0
0.788039 -0.0885812 0
0.733896 -0.0872762 0
0.67984 -0.0838975 0
0.52293 -0.028858 0
0.480273 -0.0285392 0
0.436745 -0.0271421 0
0 0 0
0 0 0
0 0 0
0.98518 -0.206561 0
0.938775 -0.194874 0
0.896273 -0.180129 0
0.846995 -0.144998 0
0.799387 -0.135749 0
0.754715 -0.124426 0
0.67984 -0.0838975 0
0.631947 -0.0791357 0
0.586735 -0.0731981 0
0.896273 -0.180129 0
0.860023 -0.163012 0
0.828624 -0.14419 0
0.754715 -0.124426 0
0.715888 -0.112134 0
0.681819 -0.0988286 0
0.586735 -0.0731981 0
0.547452 -0.0665954 0
0.512599 -0.059145 0
0.67984 -0.0838975 0
0.631947 -0.0791357 0
0.586735 -0.0731981 0
0.436745 -0.0271421 0
0.397685 -0.0253797 0
0.36124 -0.0230311 0
0 0 0
0 0 0
0 0 0
0.586735 -0.0731981 0
0.547452 -0.0665954 0
0.512599 -0.059145 0
0.36124 -0.0230311 0
0.328529 -0.0205877 0
0.30061 -0.0178406 0
0 0 0
0 0 0
0 0 0
1.24323 -0.00466768 0
1.31689 0.00299406 0
1.37511 0.00853749 0
1.25369 -0.0833806 0
1.31967 -0.0568448 0
1.37558 -0.0356213 0
1.24633 -0.147394 0
1.3067 -0.106702 0
1.36009 -0.0746912 0
1.37511 0.00853749 0
1.41746 0.0115675 0
1.44888 0.0127969 0
1.37558 -0.0356213 0
1.41441 -0.0219115 0
1.44554 -0.0119456 0
1.36009 -0.0746912 0
1.39636 -0.0521415 0
1.42719 -0.0345433 0
1.24633 -0.147394 0
1.3067 -0.106702 0
1.36009 -0.0746912 0
1.26112 -0.221105 0
1.30927 -0.163302 0
1.35244 -0.117859 0
1.27383 -0.255137 0
1.30506 -0.192578 0
1.33439 -0.141965 0
1.36009 -0.0746912 0
1.39636 -0.0521415 0
1.42719 -0.0345433 0
1.35244 -0.117859 0
1.38174 -0.0856079 0
1.40752 -0.0595531 0
1.33439 -0.141965 0
1.35579 -0.105245 0
1.37568 -0.0740796 0
1.44888 0.0127969 0
1.47225 0.0121046 0
1.48684 0.0098897 0
1.44554 -0.0119456 0
1.46718 -0.00583546 0
1.48212 -0.0016002 0
1.42719 -0.0345433 0
1.44816 -0.0216778 0
1.46429 -0.0116943 0
1.48684 0.0098897 0
1.49737 0.00580513 0
1.5 0 0
1.48212 -0.0016002 0
1.49112 0.000419659 0
1.49414 0 0
1.46429 -0.0116943 0
1.47287 -0.00465137 0
1.47656 0 0
1.42719 -0.0345433 0
1.44816 -0.0216778 0
1.46429 -0.0116943 0
1.40752 -0.0595531 0
1.42447 -0.0400848 0
1.43821 -0.0238968 0
1.37568 -0.0740796 0
1.38856 -0.050359 0
1.39967 -0.0301001 0
1.46429 -0.0116943 0
1.47287 -0.00465137 0
1.47656 0 0
1.43821 -0.0238968 0
1.44436 -0.0110959 0
1.44727 0 0
1.39967 -0.0301001 0
1.40407 -0.0142057 0
1.40625 0 0
1.27383 -0.255137 0
1.30506 -0.192578 0
1.33439 -0.141965 0
1.2713 -0.292343 0
1.29229 -0.226228 0
1.30833 -0.170154 0
1.27228 -0.301594 0
1.27751 -0.236425 0
1.2784 -0.1796 0
1.33439 -0.141965 0
1.35579 -0.105245 0
1.37568 -0.0740796 0
1.30833 -0.170154 0
1.32399 -0.129276 0
1.33598 -0.0922284 0
1.2784 -0.1796 0
1.28469 -0.136739 0
1.28793 -0.0978142 0
1.27228 -0.301594 0
1.27751 -0.236425 0
1.2784 -0.1796 0
1.24905 -0.302587 0
1.24495 -0.244635 0
1.23265 -0.187264 0
1.22603 -0.291592 0
1.20488 -0.236172 0
1.18431 -0.182302 0
1.2784 -0.1796 0
1.28469 -0.136739 0
1.28793 -0.0978142 0
1.23265 -0.187264 0
1.23247 -0.145563 0
1.22686 -0.105014 0
1.18431 -0.182302 0
1.17223 -0.141799 0
1.15956 -0.102814 0
1.37568 -0.0740796 0
1.38856 -0.050359 0
1.39967 -0.0301001 0
1.33598 -0.0922284 0
1.34481 -0.0642628 0
1.35058 -0.0395651 0
1.28793 -0.0978142 0
1.29076 -0.0685495 0
1.29092 -0.0416156 0
1.39967 -0.0301001 0
1.40407 -0.0142057 0
1.40625 0 0
1.35058 -0.0395651 0
1.35352 -0.0200298 0
1.35352 0 0
1.29092 -0.0416156 0
1.29121 -0.0203775 0
1.28906 0 0
1.28793 -0.0978142 0
1.29076 -0.0685495 0
1.29092 -0.0416156 0
1.22686 -0.105014 0
1.2257 -0.0756855 0
1.22017 -0.0460511 0
1.15956 -0.102814 0
1.15065 -0.0735089 0
1.14039 -0.0444376 0
1.29092 -0.0416156 0
1.29121 -0.0203775 0
1.28906 0 0
1.22017 -0.0460511 0
1.21828 -0.0232096 0
1.21289 0 0
1.14039 -0.0444376 0
1.13344 -0.0219726 0
1.125 0 0
2.08281 -0.302359 0
2.07233 -0.337807 0
2.08694 -0.396216 0
2.15183 -0.222502 0
2.09557 -0.276762 0
2.02221 -0.3164 0
2.01846 -0.159171 0
1.95457 -0.20513 0
1.89918 -0.245339 0
2.08694 -0.396216 0
2.02226 -0.41518 0
1.98701 -0.444789 0
2.02221 -0.3164 0
1.96283 -0.346215 0
1.90036 -0.380082 0
1.89918 -0.245339 0
1.83042 -0.277093 0
1.76049 -0.30513 0
2.01846 -0.159171 0
1.95457 -0.20513 0
1.89918 -0.245339 0
1.86878 -0.104062 0
1.81855 -0.148044 0
1.7635 -0.185506 0
1.70749 -0.0575873 0
1.66339 -0.0945157 0
1.61576 -0.126386 0
1.89918 -0.245339 0
1.83042 -0.277093 0
1.76049 -0.30513 0
1.7635 -0.185506 0
1.70326 -0.21689 0
1.64126 -0.242905 0
1.61576 -0.126386 0
1.56049 -0.152007 0
1.49965 -0.172702 0
1.98701 -0.444789 0
1.9186 -0.47858 0
1.88161 -0.510671 0
1.90036 -0.380082 0
1.82664 -0.407009 0
1.74445 -0.42791 0
1.76049 -0.30513 0
1.68624 -0.33022 0
1.61617 -0.350265 0
1.88161 -0.510671 0
1.77119 -0.517182 0
1.68642 -0.531267 0
1.74445 -0.42791 0
1.65812 -0.441262 0
1.57526 -0.448619 0
1.61617 -0.350265 0
1.53911 -0.361692 0
1.45721 -0.366118 0
1.76049 -0.30513 0
1.68624 -0.33022 0
1.61617 -0.350265 0
1.64126 -0.242905 0
1.57534 -0.262533 0
1.50657 -0.27761 0
1.49965 -0.172702 0
1.43351 -0.188938 0
1.36374 -0.201689 0
1.61617 -0.350265 0
1.53911 -0.361692 0
1.45721 -0.366118 0
1.50657 -0.27761 0
1.43314 -0.287192 0
1.35916 -0.290657 0
1.36374 -0.201689 0
1.29208 -0.209303 0
1.21562 -0.211688 0
1.70749 -0.0575873 0
1.66339 -0.0945157 0
1.61576 -0.126386 0
1.52822 -0.022548 0
1.4897 -0.0522064 0
1.44547 -0.0779647 0
1.29899 0.00792276 0
1.27233 -0.012594 0
1.237 -0.0309177 0
1.61576 -0.126386 0
1.56049 -0.152007 0
1.49965 -0.172702 0
1.44547 -0.0779647 0
1.3929 -0.0994369 0
1.3358 -0.117574 0
1.237 -0.0309177 0
1.19423 -0.0463847 0
1.14392 -0.0594946 0
1.29899 0.00792276 0
1.27233 -0.012594 0
1.237 -0.0309177 0
0.874322 0.00721754 0
0.869931 2.17039e-05 0
0.854802 -0.00661794 0
0 0 0
0 0 0
0 0 0
1.237 -0.0309177 0
1.19423 -0.0463847 0
1.14392 -0.0594946 0
0.854802 -0.00661794 0
0.831027 -0.0120722 0
0.797434 -0.0168221 0
0 0 0
0 0 0
0 0 0
1.49965 -0.172702 0
1.43351 -0.188938 0
1.36374 -0.201689 0
1.3358 -0.117574 0
1.27391 -0.131581 0
1.20784 -0.141918 0
1.14392 -0.0594946 0
1.08912 -0.0695689 0
1.02852 -0.0773904 0
1.36374 -0.201689 0
1.29208 -0.209303 0
1.21562 -0.211688 0
1.20784 -0.141918 0
1.14016 -0.147982 0
1.06989 -0.150989 0
1.02852 -0.0773904 0
0.967372 -0.0823029 0
0.901871 -0.0845888 0
1.14392 -0.0594946 0
1.08912 -0.0695689 0
1.02852 -0.0773904 0
0.797434 -0.0168221 0
0.759141 -0.0203605 0
0.712273 -0.0235701 0
0 0 0
0 0 0
0 0 0
1.02852 -0.0773904 0
0.967372 -0.0823029 0
0.901871 -0.0845888 0
0.712273 -0.0235701 0
0.664655 -0.0258233 0
0.610407 -0.0271161 0
0 0 0
0 0 0
0 0 0
2.22189 0.649054 0
2.33684 0.540492 0
2.40831 0.414388 0
1.89578 0.555976 0
2.04169 0.512679 0
2.16984 0.439053 0
1.78353 0.451254 0
1.8298 0.399326 0
1.89598 0.341809 0
2.40831 0.414388 0
2.38587 0.260274 0
2.34736 0.113419 0
2.16984 0.439053 0
2.25341 0.338817 0
2.29972 0.215417 0
1.89598 0.341809 0
1.94972 0.269088 0
2.01308 0.187686 0
1.78353 0.451254 0
1.8298 0.399326 0
1.89598 0.341809 0
1.6667 0.39573 0
1.75164 0.357803 0
1.82548 0.305831 0
1.43307 0.303891 0
1.51655 0.285186 0
1.59873 0.256178 0
1.89598 0.341809 0
1.94972 0.269088 0
2.01308 0.187686 0
1.82548 0.305831 0
1.86865 0.240177 0
1.9035 0.170869 0
1.59873 0.256178 0
1.65554 0.212848 0
1.70332 0.162478 0
2.34736 0.113419 0
2.26646 -0.0226622 0
2.18966 -0.13763 0
2.29972 0.215417 0
2.29235 0.0888982 0
2.26174 -0.0291497 0
2.01308 0.187686 0
2.03987 0.0929212 0
2.05844 0.00232142 0
2.18966 -0.13763 0
2.1285 -0.230996 0
2.08281 -0.302359 0
2.26174 -0.0291497 0
2.21192 -0.131305 0
2.15183 -0.222502 0
2.05844 0.00232142 0
2.04178 -0.0840409 0
2.01846 -0.159171 0
2.01308 0.187686 0
2.03987 0.0929212 0
2.05844 0.00232142 0
1.9035 0.170869 0
1.91499 0.0980204 0
1.91722 0.0265424 0
1.70332 0.162478 0
1.72399 0.105583 0
1.73554 0.0486839 0
2.05844 0.00232142 0
2.04178 -0.0840409 0
2.01846 -0.159171 0
1.91722 0.0265424 0
1.89752 -0.0420924 0
1.86878 -0.104062 0
1.73554 0.0486839 0
1.7253 -0.00673087 0
1.70749 -0.0575873 0
1.43307 0.303891 0
1.51655 0.285186 0
1.59873 0.256178 0
1.20878 0.220202 0
1.30456 0.210884 0
1.39315 0.193093 0
0.827169 0.12699 0
0.94066 0.130446 0
1.04842 0.127876 0
1.59873 0.256178 0
1.65554 0.212848 0
1.70332 0.162478 0
1.39315 0.193093 0
1.45339 0.165072 0
1.50428 0.131975 0
1.04842 0.127876 0
1.13718 0.117151 0
1.20972 0.101059 0
0.827169 0.12699 0
0.94066 0.130446 0
1.04842 0.127876 0
0.418063 0.0327546 0
0.4948 0.0354267 0
0.56711 0.036461 0
0 0 0
0 0 0
0 0 0
1.04842 0.127876 0
1.13718 0.117151 0
1.20972 0.101059 0
0.56711 0.036461 0
0.640588 0.0360013 0
0.708223 0.0334542 0
0 0 0
0 0 0
0 0 0
1.70332 0.162478 0
1.72399 0.105583 0
1.73554 0.0486839 0
1.50428 0.131975 0
1.53013 0.0937764 0
1.54639 0.0544158 0
1.20972 0.101059 0
1.25883 0.080002 0
1.29094 0.0566505 0
1.73554 0.0486839 0
1.7253 -0.00673087 0
1.70749 -0.0575873 0
1.54639 0.0544158 0
1.54156 0.0147972 0
1.52822 -0.022548 0
1.29094 0.0566505 0
1.30235 0.03213 0
1.29899 0.00792276 0
1.20972 0.101059 0
1.25883 0.080002 0
1.29094 0.0566505 0
0.708223 0.0334542 0
0.766952 0.0287404 0
0.816046 0.0222562 0
0 0 0
0 0 0
0 0 0
1.29094 0.0566505 0
1.30235 0.03213 0
1.29899 0.00792276 0
0.816046 0.0222562 0
0.850937 0.0146602 0
0.874322 0.00721754 0
0 0 0
0 0 0
0 0 0
-0.012078 0.326768 0
-0.0868546 0.0739164 0
-0.230882 -0.159496 0
0.418969 0.426571 0
0.327867 0.145778 0
0.156116 -0.0650671 0
0.749925 0.554942 0
0.728983 0.280008 0
0.535429 0.01041 0
-0.230882 -0.159496 0
-0.326925 -0.396194 0
-0.447123 -0.59699 0
0.156116 -0.0650671 0
0.0516755 -0.277705 0
-0.106467 -0.479355 0
0.535429 0.01041 0
0.437696 -0.199136 0
0.281669 -0.397533 0
0.749925 0.554942 0
0.728983 0.280008 0
0.535429 0.01041 0
1.04584 0.585823 0
1.00631 0.374239 0
0.901049 0.13635 0
1.54456 0.651507 0
1.31153 0.390208 0
1.21801 0.193298 0
0.535429 0.01041 0
0.437696 -0.199136 0
0.281669 -0.397533 0
0.901049 0.13635 0
0.820755 -0.0543789 0
0.687547 -0.260397 0
1.21801 0.193298 0
1.07441 -0.00312547 0
1.01278 -0.164914 0
-0.447123 -0.59699 0
-0.55014 -0.746668 0
-0.588332 -0.789544 0
-0.106467 -0.479355 0
-0.236597 -0.654601 0
-0.350614 -0.754502 0
0.281669 -0.397533 0
0.176947 -0.541762 0
-0.00666936 -0.649165 0
-0.588332 -0.789544 0
-0.578247 -0.777245 0
-0.542194 -0.735554 0
-0.350614 -0.754502 0
-0.366592 -0.786231 0
-0.359484 -0.760923 0
-0.00666936 -0.649165 0
-0.0877909 -0.747562 0
-0.135571 -0.759926 0
0.281669 -0.397533 0
0.176947 -0.541762 0
-0.00666936 -0.649165 0
0.687547 -0.260397 0
0.545387 -0.425027 0
0.365016 -0.574524 0
1.01278 -0.164914 0
0.857817 -0.34192 0
0.739613 -0.474334 0
-0.00666936 -0.649165 0
-0.0877909 -0.747562 0
-0.135571 -0.759926 0
0.365016 -0.574524 0
0.2612 -0.668742 0
0.138554 -0.6948 0
0.739613 -0.474334 0
0.580171 -0.555844 0
0.412851 -0.609066 0
1.54456 0.651507 0
1.31153 0.390208 0
1.21801 0.193298 0
1.88242 0.801678 0
1.74992 0.54758 0
1.61413 0.313224 0
1.96121 0.807702 0
1.97997 0.677757 0
1.90312 0.470666 0
1.21801 0.193298 0
1.07441 -0.00312547 0
1.01278 -0.164914 0
1.61413 0.313224 0
1.44413 0.0931434 0
1.3027 -0.0830533 0
1.90312 0.470666 0
1.79429 0.276548 0
1.6272 0.0699819 0
1.96121 0.807702 0
1.97997 0.677757 0
1.90312 0.470666 0
2.18085 0.757279 0
2.15175 0.630212 0
2.13254 0.480955 0
2.22189 0.649054 0
2.33684 0.540492 0
2.40831 0.414388 0
1.90312 0.470666 0
1.79429 0.276548 0
1.6272 0.0699819 0
2.13254 0.480955 0
2.02815 0.305315 0
1.94977 0.142029 0
2.40831 0.414388 0
2.38587 0.260274 0
2.34736 0.113419 0
1.01278 -0.164914 0
0.857817 -0.34192 0
0.739613 -0.474334 0
1.3027 -0.0830533 0
1.15535 -0.232929 0
0.993756 -0.35734 0
1.6272 0.0699819 0
1.46137 -0.0766082 0
1.26785 -0.212981 0
0.739613 -0.474334 0
0.580171 -0.555844 0
0.412851 -0.609066 0
0.993756 -0.35734 0
0.842238 -0.448785 0
0.662547 -0.483921 0
1.26785 -0.212981 0
1.10127 -0.27853 0
0.898742 -0.307114 0
1.6272 0.0699819 0
1.46137 -0.0766082 0
1.26785 -0.212981 0
1.94977 0.142029 0
1.79444 -0.00939493 0
1.67386 -0.128543 0
2.34736 0.113419 0
2.26646 -0.0226622 0
2.18966 -0.13763 0
1.26785 -0.212981 0
1.10127 -0.27853 0
0.898742 -0.307114 0
1.67386 -0.128543 0
1.5376 -0.216474 0
1.45239 -0.267211 0
2.18966 -0.13763 0
2.1285 -0.230996 0
2.08281 -0.302359 0
1.55939 0.135911 0
1.54865 0.0871036 0
1.51947 0.0440396 0
1.07655 0.165278 0
1.10586 0.100161 0
1.15224 0.0260081 0
0.508294 0.0741215 0
0.556745 -0.0613305 0
0.563026 -0.127666 0
1.51947 0.0440396 0
1.54585 -0.0115518 0
1.57626 -0.0560399 0
1.15224 0.0260081 0
1.25269 -0.068522 0
1.33767 -0.140321 0
0.563026 -0.127666 0
0.700438 -0.209579 0
0.834708 -0.273534 0
0.508294 0.0741215 0
0.556745 -0.0613305 0
0.563026 -0.127666 0
-0.142075 0.0820655 0
-0.0884287 -0.0723373 0
0.0142557 -0.262074 0
-0.637985 0.0519114 0
-0.571068 -0.145758 0
-0.530665 -0.293624 0
0.563026 -0.127666 0
0.700438 -0.209579 0
0.834708 -0.273534 0
0.0142557 -0.262074 0
0.15081 -0.376831 0
0.260435 -0.443051 0
-0.530665 -0.293624 0
-0.388082 -0.450446 0
-0.205537 -0.519349 0
1.57626 -0.0560399 0
1.64807 -0.0940897 0
1.72854 -0.1075 0
1.33767 -0.140321 0
1.46101 -0.206267 0
1.57641 -0.237592 0
0.834708 -0.273534 0
0.989417 -0.324837 0
1.11127 -0.340172 0
1.72854 -0.1075 0
1.81707 -0.101301 0
1.91067 -0.0683149 0
1.57641 -0.237592 0
1.6894 -0.233623 0
1.78722 -0.170784 0
1.11127 -0.340172 0
1.18869 -0.314587 0
1.22817 -0.234147 0
0.834708 -0.273534 0
0.989417 -0.324837 0
1.11127 -0.340172 0
0.260435 -0.443051 0
0.365191 -0.491376 0
0.466518 -0.490654 0
-0.205537 -0.519349 0
-0.1464 -0.557061 0
-0.0499912 -0.567223 0
1.11127 -0.340172 0
1.18869 -0.314587 0
1.22817 -0.234147 0
0.466518 -0.490654 0
0.496285 -0.422744 0
0.520594 -0.311186 0
-0.0499912 -0.567223 0
-0.0306148 -0.516817 0
0.0210071 -0.408319 0
-0.637985 0.0519114 0
-0.571068 -0.145758 0
-0.530665 -0.293624 0
-0.773919 0.0780853 0
-0.77562 -0.227694 0
-0.760978 -0.466494 0
-0.568554 0.228989 0
-0.585463 -0.0922567 0
-0.674564 -0.394245 0
-0.530665 -0.293624 0
-0.388082 -0.450446 0
-0.205537 -0.519349 0
-0.760978 -0.466494 0
-0.73637 -0.630996 0
-0.61335 -0.721424 0
-0.674564 -0.394245 0
-0.75405 -0.601184 0
-0.799149 -0.751512 0
-0.568554 0.228989 0
-0.585463 -0.0922567 0
-0.674564 -0.394245 0
-0.35448 0.242908 0
-0.381061 -0.0526954 0
-0.497835 -0.33065 0
-0.012078 0.326768 0
-0.0868546 0.0739164 0
-0.230882 -0.159496 0
-0.674564 -0.394245 0
-0.75405 -0.601184 0
-0.799149 -0.751512 0
-0.497835 -0.33065 0
-0.599902 -0.546248 0
-0.692172 -0.704656 0
-0.230882 -0.159496 0
-0.326925 -0.396194 0
-0.447123 -0.59699 0
-0.205537 -0.519349 0
-0.1464 -0.557061 0
-0.0499912 -0.567223 0
-0.61335 -0.721424 0
-0.528844 -0.692852 0
-0.446198 -0.64253 0
-0.799149 -0.751512 0
-0.774839 -0.765891 0
-0.734564 -0.709341 0
-0.0499912 -0.567223 0
-0.0306148 -0.516817 0
0.0210071 -0.408319 0
-0.446198 -0.64253 0
-0.366249 -0.566723 0
-0.3018 -0.425934 0
-0.734564 -0.709341 0
-0.632548 -0.660842 0
-0.496784 -0.527172 0
-0.799149 -0.751512 0
-0.774839 -0.765891 0
-0.734564 -0.709341 0
-0.692172 -0.704656 0
-0.738765 -0.785239 0
-0.729268 -0.767754 0
-0.447123 -0.59699 0
-0.55014 -0.746668 0
-0.588332 -0.789544 0
-0.734564 -0.709341 0
-0.632548 -0.660842 0
-0.496784 -0.527172 0
-0.729268 -0.767754 0
-0.687816 -0.744697 0
-0.591926 -0.666267 0
-0.588332 -0.789544 0
-0.578247 -0.777245 0
-0.542194 -0.735554 0
0 0 0
0 0 0
0 0 0
0.613778 -0.00717801 0
0.624471 -0.00645464 0
0.642086 -0.00502969 0
1.0787 -0.0164027 0
1.08687 -0.0122809 0
1.08941 -0.00843633 0
0 0 0
0 0 0