# vtk DataFile Version 3.0
#This file was generated by the deal.II library on 2025/1/4 at 9:54:18
ASCII
DATASET UNSTRUCTURED_GRID

POINTS 8640 double
1.1 1.1 0
0.9625 1.09063 0
0.825 1.08125 0
1.0875 0.9625 0
0.951563 0.954297 0
0.815625 0.946094 0
1.075 0.825 0
0.940625 0.817969 0
0.80625 0.810937 0
0.825 1.08125 0
0.6875 1.07187 0
0.55 1.0625 0
0.815625 0.946094 0
0.679688 0.937891 0
0.54375 0.929688 0
0.80625 0.810937 0
0.671875 0.803906 0
0.5375 0.796875 0
1.075 0.825 0
0.940625 0.817969 0
0.80625 0.810937 0
1.0625 0.6875 0
0.929688 0.681641 0
0.796875 0.675781 0
1.05 0.55 0
0.91875 0.545313 0
0.7875 0.540625 0
0.80625 0.810937 0
0.671875 0.803906 0
0.5375 0.796875 0
0.796875 0.675781 0
0.664062 0.669922 0
0.53125 0.664062 0
0.7875 0.540625 0
0.65625 0.535937 0
0.525 0.53125 0
0.55 1.0625 0
0.4125 1.05313 0
0.275 1.04375 0
0.54375 0.929688 0
0.407813 0.921484 0
0.271875 0.913281 0
0.5375 0.796875 0
0.403125 0.789844 0
0.26875 0.782813 0
0.275 1.04375 0
0.1375 1.03437 0
0 1.025 0
0.271875 0.913281 0
0.135938 0.905078 0
0 0.896875 0
0.26875 0.782813 0
0.134375 0.775781 0
0 0.76875 0
0.5375 0.796875 0
0.403125 0.789844 0
0.26875 0.782813 0
0.53125 0.664062 0
0.398438 0.658203 0
0.265625 0.652344 0
0.525 0.53125 0
0.39375 0.526563 0
0.2625 0.521875 0
0.26875 0.782813 0
0.134375 0.775781 0
0 0.76875 0
0.265625 0.652344 0
0.132812 0.646484 0
0 0.640625 0
0.2625 0.521875 0
0.13125 0.517187 0
0 0.5125 0
1.05 0.55 0
0.91875 0.545313 0
0.7875 0.540625 0
1.0375 0.4125 0
0.907812 0.408984 0
0.778125 0.405469 0
1.025 0.275 0
0.896875 0.272656 0
0.76875 0.270313 0
0.7875 0.540625 0
0.65625 0.535937 0
0.525 0.53125 0
0.778125 0.405469 0
0.648438 0.401953 0
0.51875 0.398438 0
0.76875 0.270313 0
0.640625 0.267969 0
0.5125 0.265625 0
1.025 0.275 0
0.896875 0.272656 0
0.76875 0.270313 0
1.0125 0.1375 0
0.885937 0.136328 0
0.759375 0.135156 0
1 0 0
0.875 0 0
0.75 0 0
0.76875 0.270313 0
0.640625 0.267969 0
0.5125 0.265625 0
0.759375 0.135156 0
0.632812 0.133984 0
0.50625 0.132812 0
0.75 0 0
0.625 0 0
0.5 0 0
0.525 0.53125 0
0.39375 0.526563 0
0.2625 0.521875 0
0.51875 0.398438 0
0.389062 0.394922 0
0.259375 0.391406 0
0.5125 0.265625 0
0.384375 0.263281 0
0.25625 0.260937 0
0.2625 0.521875 0
0.13125 0.517187 0
0 0.5125 0
0.259375 0.391406 0
0.129688 0.387891 0
0 0.384375 0
0.25625 0.260937 0
0.128125 0.258594 0
0 0.25625 0
0.5125 0.265625 0
0.384375 0.263281 0
0.25625 0.260937 0
0.50625 0.132812 0
0.379687 0.131641 0
0.253125 0.130469 0
0.5 0 0
0.375 0 0
0.25 0 0
0.25625 0.260937 0
0.128125 0.258594 0
0 0.25625 0
0.253125 0.130469 0
0.126562 0.129297 0
0 0.128125 0
0.25 0 0
0.125 0 0
0 0 0
2 1 0
1.8875 1.0125 0
1.775 1.025 0
2 0.875 0
1.88594 0.885938 0
1.77188 0.896875 0
2 0.75 0
1.88437 0.759375 0
1.76875 0.76875 0
1.775 1.025 0
1.6625 1.0375 0
1.55 1.05 0
1.77188 0.896875 0
1.65781 0.907813 0
1.54375 0.91875 0
1.76875 0.76875 0
1.65313 0.778125 0
1.5375 0.7875 0
2 0.75 0
1.88437 0.759375 0
1.76875 0.76875 0
2 0.625 0
1.88281 0.632812 0
1.76562 0.640625 0
2 0.5 0
1.88125 0.50625 0
1.7625 0.5125 0
1.76875 0.76875 0
1.65313 0.778125 0
1.5375 0.7875 0
1.76562 0.640625 0
1.64844 0.648438 0
1.53125 0.65625 0
1.7625 0.5125 0
1.64375 0.51875 0
1.525 0.525 0
1.55 1.05 0
1.4375 1.0625 0
1.325 1.075 0
1.54375 0.91875 0
1.42969 0.929688 0
1.31563 0.940625 0
1.5375 0.7875 0
1.42188 0.796875 0
1.30625 0.80625 0
1.325 1.075 0
1.2125 1.0875 0
1.1 1.1 0
1.31563 0.940625 0
1.20156 0.951563 0
1.0875 0.9625 0
1.30625 0.80625 0
1.19063 0.815625 0
1.075 0.825 0
1.5375 0.7875 0
1.42188 0.796875 0
1.30625 0.80625 0
1.53125 0.65625 0
1.41406 0.664062 0
1.29688 0.671875 0
1.525 0.525 0
1.40625 0.53125 0
1.2875 0.5375 0
1.30625 0.80625 0
1.19063 0.815625 0
1.075 0.825 0
1.29688 0.671875 0
1.17969 0.679688 0
1.0625 0.6875 0
1.2875 0.5375 0
1.16875 0.54375 0
1.05 0.55 0
2 0.5 0
1.88125 0.50625 0
1.7625 0.5125 0
2 0.375 0
1.87969 0.379687 0
1.75938 0.384375 0
2 0.25 0
1.87813 0.253125 0
1.75625 0.25625 0
1.7625 0.5125 0
1.64375 0.51875 0
1.525 0.525 0
1.75938 0.384375 0
1.63906 0.389063 0
1.51875 0.39375 0
1.75625 0.25625 0
1.63438 0.259375 0
1.5125 0.2625 0
2 0.25 0
1.87813 0.253125 0
1.75625 0.25625 0
2 0.125 0
1.87656 0.126562 0
1.75313 0.128125 0
2 0 0
1.875 0 0
1.75 0 0
1.75625 0.25625 0
1.63438 0.259375 0
1.5125 0.2625 0
1.75313 0.128125 0
1.62969 0.129688 0
1.50625 0.13125 0
1.75 0 0
1.625 0 0
1.5 0 0
1.525 0.525 0
1.40625 0.53125 0
1.2875 0.5375 0
1.51875 0.39375 0
1.39844 0.398438 0
1.27813 0.403125 0
1.5125 0.2625 0
1.39062 0.265625 0
1.26875 0.26875 0
1.2875 0.5375 0
1.16875 0.54375 0
1.05 0.55 0
1.27813 0.403125 0
1.15781 0.407813 0
1.0375 0.4125 0
1.26875 0.26875 0
1.14688 0.271875 0
1.025 0.275 0
1.5125 0.2625 0
1.39062 0.265625 0
1.26875 0.26875 0
1.50625 0.13125 0
1.38281 0.132812 0
1.25937 0.134375 0
1.5 0 0
1.375 0 0
1.25 0 0
1.26875 0.26875 0
1.14688 0.271875 0
1.025 0.275 0
1.25937 0.134375 0
1.13594 0.135938 0
1.0125 0.1375 0
1.25 0 0
1.125 0 0
1 0 0
1 2 0
0.875 2.00625 0
0.75 2.0125 0
1.0125 1.8875 0
0.885938 1.8918 0
0.759375 1.89609 0
1.025 1.775 0
0.896875 1.77734 0
0.76875 1.77969 0
0.75 2.0125 0
0.625 2.01875 0
0.5 2.025 0
0.759375 1.89609 0
0.632812 1.90039 0
0.50625 1.90469 0
0.76875 1.77969 0
0.640625 1.78203 0
0.5125 1.78437 0
1.025 1.775 0
0.896875 1.77734 0
0.76875 1.77969 0
1.0375 1.6625 0
0.907813 1.66289 0
0.778125 1.66328 0
1.05 1.55 0
0.91875 1.54844 0
0.7875 1.54688 0
0.76875 1.77969 0
0.640625 1.78203 0
0.5125 1.78437 0
0.778125 1.66328 0
0.648438 1.66367 0
0.51875 1.66406 0
0.7875 1.54688 0
0.65625 1.54531 0
0.525 1.54375 0
0.5 2.025 0
0.375 2.03125 0
0.25 2.0375 0
0.50625 1.90469 0
0.379687 1.90898 0
0.253125 1.91328 0
0.5125 1.78437 0
0.384375 1.78672 0
0.25625 1.78906 0
0.25 2.0375 0
0.125 2.04375 0
0 2.05 0
0.253125 1.91328 0
0.126562 1.91758 0
0 1.92187 0
0.25625 1.78906 0
0.128125 1.79141 0
0 1.79375 0
0.5125 1.78437 0
0.384375 1.78672 0
0.25625 1.78906 0
0.51875 1.66406 0
0.389062 1.66445 0
0.259375 1.66484 0
0.525 1.54375 0
0.39375 1.54219 0
0.2625 1.54062 0
0.25625 1.78906 0
0.128125 1.79141 0
0 1.79375 0
0.259375 1.66484 0
0.129688 1.66523 0
0 1.66562 0
0.2625 1.54062 0
0.13125 1.53906 0
0 1.5375 0
1.05 1.55 0
0.91875 1.54844 0
0.7875 1.54688 0
1.0625 1.4375 0
0.929688 1.43398 0
0.796875 1.43047 0
1.075 1.325 0
0.940625 1.31953 0
0.80625 1.31406 0
0.7875 1.54688 0
0.65625 1.54531 0
0.525 1.54375 0
0.796875 1.43047 0
0.664062 1.42695 0
0.53125 1.42344 0
0.80625 1.31406 0
0.671875 1.30859 0
0.5375 1.30312 0
1.075 1.325 0
0.940625 1.31953 0
0.80625 1.31406 0
1.0875 1.2125 0
0.951563 1.20508 0
0.815625 1.19766 0
1.1 1.1 0
0.9625 1.09063 0
0.825 1.08125 0
0.80625 1.31406 0
0.671875 1.30859 0
0.5375 1.30312 0
0.815625 1.19766 0
0.679688 1.19023 0
0.54375 1.18281 0
0.825 1.08125 0
0.6875 1.07187 0
0.55 1.0625 0
0.525 1.54375 0
0.39375 1.54219 0
0.2625 1.54062 0
0.53125 1.42344 0
0.398438 1.41992 0
0.265625 1.41641 0
0.5375 1.30312 0
0.403125 1.29766 0
0.26875 1.29219 0
0.2625 1.54062 0
0.13125 1.53906 0
0 1.5375 0
0.265625 1.41641 0
0.132812 1.41289 0
0 1.40937 0
0.26875 1.29219 0
0.134375 1.28672 0
0 1.28125 0
0.5375 1.30312 0
0.403125 1.29766 0
0.26875 1.29219 0
0.54375 1.18281 0
0.407813 1.17539 0
0.271875 1.16797 0
0.55 1.0625 0
0.4125 1.05313 0
0.275 1.04375 0
0.26875 1.29219 0
0.134375 1.28672 0
0 1.28125 0
0.271875 1.16797 0
0.135938 1.16055 0
0 1.15312 0
0.275 1.04375 0
0.1375 1.03437 0
0 1.025 0
2.9 1.1 0
2.7875 1.0875 0
2.675 1.075 0
2.9125 0.9625 0
2.79844 0.951563 0
2.68438 0.940625 0
2.925 0.825 0
2.80938 0.815625 0
2.69375 0.80625 0
2.675 1.075 0
2.5625 1.0625 0
2.45 1.05 0
2.68438 0.940625 0
2.57031 0.929688 0
2.45625 0.91875 0
2.69375 0.80625 0
2.57812 0.796875 0
2.4625 0.7875 0
2.925 0.825 0
2.80938 0.815625 0
2.69375 0.80625 0
2.9375 0.6875 0
2.82031 0.679688 0
2.70312 0.671875 0
2.95 0.55 0
2.83125 0.54375 0
2.7125 0.5375 0
2.69375 0.80625 0
2.57812 0.796875 0
2.4625 0.7875 0
2.70312 0.671875 0
2.58594 0.664062 0
2.46875 0.65625 0
2.7125 0.5375 0
2.59375 0.53125 0
2.475 0.525 0
2.45 1.05 0
2.3375 1.0375 0
2.225 1.025 0
2.45625 0.91875 0
2.34219 0.907813 0
2.22813 0.896875 0
2.4625 0.7875 0
2.34688 0.778125 0
2.23125 0.76875 0
2.225 1.025 0
2.1125 1.0125 0
2 1 0
2.22813 0.896875 0
2.11406 0.885938 0
2 0.875 0
2.23125 0.76875 0
2.11563 0.759375 0
2 0.75 0
2.4625 0.7875 0
2.34688 0.778125 0
2.23125 0.76875 0
2.46875 0.65625 0
2.35156 0.648438 0
2.23438 0.640625 0
2.475 0.525 0
2.35625 0.51875 0
2.2375 0.5125 0
2.23125 0.76875 0
2.11563 0.759375 0
2 0.75 0
2.23438 0.640625 0
2.11719 0.632812 0
2 0.625 0
2.2375 0.5125 0
2.11875 0.50625 0
2 0.5 0
2.95 0.55 0
2.83125 0.54375 0
2.7125 0.5375 0
2.9625 0.4125 0
2.84219 0.407813 0
2.72188 0.403125 0
2.975 0.275 0
2.85313 0.271875 0
2.73125 0.26875 0
2.7125 0.5375 0
2.59375 0.53125 0
2.475 0.525 0
2.72188 0.403125 0
2.60156 0.398438 0
2.48125 0.39375 0
2.73125 0.26875 0
2.60938 0.265625 0
2.4875 0.2625 0
2.975 0.275 0
2.85313 0.271875 0
2.73125 0.26875 0
2.9875 0.1375 0
2.86406 0.135938 0
2.74063 0.134375 0
3 0 0
2.875 0 0
2.75 0 0
2.73125 0.26875 0
2.60938 0.265625 0
2.4875 0.2625 0
2.74063 0.134375 0
2.61719 0.132812 0
2.49375 0.13125 0
2.75 0 0
2.625 0 0
2.5 0 0
2.475 0.525 0
2.35625 0.51875 0
2.2375 0.5125 0
2.48125 0.39375 0
2.36094 0.389063 0
2.24062 0.384375 0
2.4875 0.2625 0
2.36562 0.259375 0
2.24375 0.25625 0
2.2375 0.5125 0
2.11875 0.50625 0
2 0.5 0
2.24062 0.384375 0
2.12031 0.379687 0
2 0.375 0
2.24375 0.25625 0
2.12188 0.253125 0
2 0.25 0
2.4875 0.2625 0
2.36562 0.259375 0
2.24375 0.25625 0
2.49375 0.13125 0
2.37031 0.129688 0
2.24688 0.128125 0
2.5 0 0
2.375 0 0
2.25 0 0
2.24375 0.25625 0
2.12188 0.253125 0
2 0.25 0
2.24688 0.128125 0
2.12344 0.126562 0
2 0.125 0
2.25 0 0
2.125 0 0
2 0 0
4 1 0
3.8625 1.0125 0
3.725 1.025 0
4 0.875 0
3.86406 0.885938 0
3.72813 0.896875 0
4 0.75 0
3.86563 0.759375 0
3.73125 0.76875 0
3.725 1.025 0
3.5875 1.0375 0
3.45 1.05 0
3.72813 0.896875 0
3.59219 0.907813 0
3.45625 0.91875 0
3.73125 0.76875 0
3.59688 0.778125 0
3.4625 0.7875 0
4 0.75 0
3.86563 0.759375 0
3.73125 0.76875 0
4 0.625 0
3.86719 0.632812 0
[...]
POINT_DATA 8640
VECTORS v double
1.21832 -0.240624 0
1.20094 -0.197689 0
1.18125 -0.156101 0
1.14558 -0.214858 0
1.11998 -0.178348 0
1.09766 -0.146343 0
1.05902 -0.187236 0
1.03041 -0.157073 0
1.00221 -0.129254 0
1.18125 -0.156101 0
1.17089 -0.12598 0
1.15836 -0.0957159 0
1.09766 -0.146343 0
1.07994 -0.117502 0
1.06538 -0.0923529 0
1.00221 -0.129254 0
0.980549 -0.104497 0
0.960941 -0.0821968 0
1.05902 -0.187236 0
1.03041 -0.157073 0
1.00221 -0.129254 0
0.948149 -0.146488 0
0.914985 -0.12444 0
0.884986 -0.104509 0
0.814971 -0.1142 0
0.782415 -0.098076 0
0.752763 -0.0830522 0
1.00221 -0.129254 0
0.980549 -0.104497 0
0.960941 -0.0821968 0
0.884986 -0.104509 0
0.860354 -0.0858149 0
0.839232 -0.0684368 0
0.752763 -0.0830522 0
0.727548 -0.0685873 0
0.706024 -0.055076 0
1.15836 -0.0957159 0
1.15037 -0.0722128 0
1.14055 -0.0469543 0
1.06538 -0.0923529 0
1.05254 -0.0690276 0
1.04267 -0.0464608 0
0.960941 -0.0821968 0
0.94557 -0.061192 0
0.933228 -0.0411387 0
1.14055 -0.0469543 0
1.13328 -0.0246538 0
1.125 0 0
1.04267 -0.0464608 0
1.03258 -0.0235231 0
1.02539 0 0
0.933228 -0.0411387 0
0.921808 -0.0206841 0
0.914062 0 0
0.960941 -0.0821968 0
0.94557 -0.061192 0
0.933228 -0.0411387 0
0.839232 -0.0684368 0
0.822394 -0.0513844 0
0.809514 -0.0351698 0
0.706024 -0.055076 0
0.688351 -0.0417514 0
0.674964 -0.0289038 0
0.933228 -0.0411387 0
0.921808 -0.0206841 0
0.914062 0 0
0.809514 -0.0351698 0
0.798243 -0.0180845 0
0.791016 0 0
0.674964 -0.0289038 0
0.663306 -0.0150326 0
0.65625 0 0
0.814971 -0.1142 0
0.782415 -0.098076 0
0.752763 -0.0830522 0
0.666026 -0.076666 0
0.633538 -0.0659567 0
0.603847 -0.0559494 0
0.49373 -0.0454314 0
0.464039 -0.0394295 0
0.437077 -0.0338675 0
0.752763 -0.0830522 0
0.727548 -0.0685873 0
0.706024 -0.055076 0
0.603847 -0.0559494 0
0.578706 -0.046439 0
0.557146 -0.0375586 0
0.437077 -0.0338675 0
0.41414 -0.0285417 0
0.394576 -0.023595 0
0.49373 -0.0454314 0
0.464039 -0.0394295 0
0.437077 -0.0338675 0
0.290201 -0.0136092 0
0.267216 -0.0116402 0
0.246959 -0.00995005 0
0 0 0
0 0 0
0 0 0
0.437077 -0.0338675 0
0.41414 -0.0285417 0
0.394576 -0.023595 0
0.246959 -0.00995005 0
0.229125 -0.00828915 0
0.214355 -0.00685648 0
0 0 0
0 0 0
0 0 0
0.706024 -0.055076 0
0.688351 -0.0417514 0
0.674964 -0.0289038 0
0.557146 -0.0375586 0
0.539555 -0.0285647 0
0.526347 -0.019783 0
0.394576 -0.023595 0
0.378411 -0.0184915 0
0.366376 -0.013519 0
0.674964 -0.0289038 0
0.663306 -0.0150326 0
0.65625 0 0
0.526347 -0.019783 0
0.515638 -0.0101634 0
0.509766 0 0
0.366376 -0.013519 0
0.356681 -0.00768158 0
0.351562 0 0
0.394576 -0.023595 0
0.378411 -0.0184915 0
0.366376 -0.013519 0
0.214355 -0.00685648 0
0.201592 -0.00518845 0
0.192585 -0.0036845 0
0 0 0
0 0 0
0 0 0
0.366376 -0.013519 0
0.356681 -0.00768158 0
0.351562 0 0
0.192585 -0.0036845 0
0.184985 -0.00184221 0
0.181641 0 0
0 0 0
0 0 0
0 0 0
1.64983 -0.365538 0
1.58053 -0.40149 0
1.50584 -0.415073 0
1.50581 -0.287008 0
1.4513 -0.315574 0
1.38597 -0.329729 0
1.37128 -0.227449 0
1.33006 -0.255391 0
1.28207 -0.271619 0
1.50584 -0.415073 0
1.43382 -0.405904 0
1.36361 -0.383677 0
1.38597 -0.329729 0
1.33113 -0.330933 0
1.27124 -0.320389 0
1.28207 -0.271619 0
1.23779 -0.275898 0
1.18829 -0.269168 0
1.37128 -0.227449 0
1.33006 -0.255391 0
1.28207 -0.271619 0
1.25183 -0.175984 0
1.21303 -0.19162 0
1.1686 -0.200984 0
1.09167 -0.121141 0
1.05379 -0.134816 0
1.01337 -0.144137 0
1.28207 -0.271619 0
1.23779 -0.275898 0
1.18829 -0.269168 0
1.1686 -0.200984 0
1.12487 -0.203329 0
1.07844 -0.199282 0
1.01337 -0.144137 0
0.974719 -0.148947 0
0.934866 -0.148737 0
1.36361 -0.383677 0
1.31256 -0.353191 0
1.26896 -0.315478 0
1.27124 -0.320389 0
1.23212 -0.300033 0
1.19172 -0.273959 0
1.18829 -0.269168 0
1.15135 -0.254355 0
1.1127 -0.233869 0
1.26896 -0.315478 0
1.24155 -0.279462 0
1.21832 -0.240624 0
1.19172 -0.273959 0
1.16783 -0.244544 0
1.14558 -0.214858 0
1.1127 -0.233869 0
1.086 -0.211179 0
1.05902 -0.187236 0
1.18829 -0.269168 0
1.15135 -0.254355 0
1.1127 -0.233869 0
1.07844 -0.199282 0
1.04089 -0.190202 0
1.00367 -0.177674 0
0.934866 -0.148737 0
0.901262 -0.144244 0
0.86819 -0.136526 0
1.1127 -0.233869 0
1.086 -0.211179 0
1.05902 -0.187236 0
1.00367 -0.177674 0
0.974934 -0.162926 0
0.948149 -0.146488 0
0.86819 -0.136526 0
0.840804 -0.126232 0
0.814971 -0.1142 0
1.09167 -0.121141 0
1.05379 -0.134816 0
1.01337 -0.144137 0
0.935836 -0.0857181 0
0.901998 -0.094632 0
0.864453 -0.100414 0
0.757174 -0.0436322 0
0.724071 -0.0497365 0
0.687068 -0.0540658 0
1.01337 -0.144137 0
0.974719 -0.148947 0
0.934866 -0.148737 0
0.864453 -0.100414 0
0.828172 -0.10262 0
0.789414 -0.101447 0
0.687068 -0.0540658 0
0.651571 -0.0563617 0
0.613961 -0.0566957 0
0.757174 -0.0436322 0
0.724071 -0.0497365 0
0.687068 -0.0540658 0
0.482113 -0.0133181 0
0.462401 -0.0154965 0
0.436422 -0.0170354 0
0 0 0
0 0 0
0 0 0
0.687068 -0.0540658 0
0.651571 -0.0563617 0
0.613961 -0.0566957 0
0.436422 -0.0170354 0
0.412235 -0.0178465 0
0.383951 -0.0178007 0
0 0 0
0 0 0
0 0 0
0.934866 -0.148737 0
0.901262 -0.144244 0
0.86819 -0.136526 0
0.789414 -0.101447 0
0.755757 -0.0975491 0
0.721813 -0.0917142 0
0.613961 -0.0566957 0
0.581043 -0.0553931 0
0.548075 -0.0529591 0
0.86819 -0.136526 0
0.840804 -0.126232 0
0.814971 -0.1142 0
0.721813 -0.0917142 0
0.693215 -0.084747 0
0.666026 -0.076666 0
0.548075 -0.0529591 0
0.520198 -0.049662 0
0.49373 -0.0454314 0
0.613961 -0.0566957 0
0.581043 -0.0553931 0
0.548075 -0.0529591 0
0.383951 -0.0178007 0
0.359406 -0.0173236 0
0.333629 -0.0162777 0
0 0 0
0 0 0
0 0 0
0.548075 -0.0529591 0
0.520198 -0.049662 0
0.49373 -0.0454314 0
0.333629 -0.0162777 0
0.311451 -0.0151581 0
0.290201 -0.0136092 0
0 0 0
0 0 0
0 0 0
1.24981 0.0456346 0
1.32191 0.0396037 0
1.37871 0.0316602 0
1.2564 -0.0278818 0
1.32208 -0.0171863 0
1.3776 -0.00965387 0
1.24348 -0.0931268 0
1.30656 -0.0672627 0
1.36014 -0.0483094 0
1.37871 0.0316602 0
1.41992 0.0244511 0
1.45039 0.0170603 0
1.3776 -0.00965387 0
1.41596 -0.0074726 0
1.44665 -0.00622916 0
1.36014 -0.0483094 0
1.39749 -0.0370869 0
1.42775 -0.0282847 0
1.24348 -0.0931268 0
1.30656 -0.0672627 0
1.36014 -0.0483094 0
1.25945 -0.166661 0
1.30922 -0.123162 0
1.35253 -0.0905524 0
1.26844 -0.200568 0
1.30227 -0.15234 0
1.3332 -0.114472 0
1.36014 -0.0483094 0
1.39749 -0.0370869 0
1.42775 -0.0282847 0
1.35253 -0.0905524 0
1.38264 -0.069624 0
1.40809 -0.052614 0
1.3332 -0.114472 0
1.35567 -0.0889652 0
1.3758 -0.066936 0
1.45039 0.0170603 0
1.47302 0.0112039 0
1.48713 0.00599237 0
1.44665 -0.00622916 0
1.4677 -0.0060839 0
1.48222 -0.00495173 0
1.42775 -0.0282847 0
1.44895 -0.0216579 0
1.46422 -0.0148205 0
1.48713 0.00599237 0
1.49738 0.00252592 0
1.5 0 0
1.48222 -0.00495173 0
1.49105 -0.00289893 0
1.49414 0 0
1.46422 -0.0148205 0
1.47321 -0.00780941 0
1.47656 0 0
1.42775 -0.0282847 0
1.44895 -0.0216579 0
1.46422 -0.0148205 0
1.40809 -0.052614 0
1.4252 -0.0396135 0
1.43832 -0.0267107 0
1.3758 -0.066936 0
1.38896 -0.0497013 0
1.39999 -0.032752 0
1.46422 -0.0148205 0
1.47321 -0.00780941 0
1.47656 0 0
1.43832 -0.0267107 0
1.44463 -0.0140419 0
1.44727 0 0
1.39999 -0.032752 0
1.40426 -0.0170095 0
1.40625 0 0
1.26844 -0.200568 0
1.30227 -0.15234 0
1.3332 -0.114472 0
1.26699 -0.240818 0
1.28964 -0.187307 0
1.30803 -0.143181 0
1.26856 -0.249795 0
1.27434 -0.196962 0
1.27794 -0.152369 0
1.3332 -0.114472 0
1.35567 -0.0889652 0
1.3758 -0.066936 0
1.30803 -0.143181 0
1.32362 -0.112739 0
1.33628 -0.0850435 0
1.27794 -0.152369 0
1.28355 -0.120208 0
1.288 -0.0906773 0
1.26856 -0.249795 0
1.27434 -0.196962 0
1.27794 -0.152369 0
1.2435 -0.251457 0
1.24098 -0.205927 0
1.2312 -0.160495 0
1.21832 -0.240624 0
1.20094 -0.197689 0
1.18125 -0.156101 0
1.27794 -0.152369 0
1.28355 -0.120208 0
1.288 -0.0906773 0
1.2312 -0.160495 0
1.23113 -0.129719 0
1.22646 -0.0978388 0
1.18125 -0.156101 0
1.17089 -0.12598 0
1.15836 -0.0957159 0
1.3758 -0.066936 0
1.38896 -0.0497013 0
1.39999 -0.032752 0
1.33628 -0.0850435 0
1.34499 -0.0634944 0
1.35143 -0.0421696 0
1.288 -0.0906773 0
1.29043 -0.0673991 0
1.29206 -0.044077 0
1.39999 -0.032752 0
1.40426 -0.0170095 0
1.40625 0 0
1.35143 -0.0421696 0
1.35346 -0.0225334 0
1.35352 0 0
1.29206 -0.044077 0
1.2908 -0.0229481 0
1.28906 0 0
1.288 -0.0906773 0
1.29043 -0.0673991 0
1.29206 -0.044077 0
1.22646 -0.0978388 0
1.22526 -0.0743219 0
1.22095 -0.0484337 0
1.15836 -0.0957159 0
1.15037 -0.0722128 0
1.14055 -0.0469543 0
1.29206 -0.044077 0
1.2908 -0.0229481 0
1.28906 0 0
1.22095 -0.0484337 0
1.21791 -0.026054 0
1.21289 0 0
1.14055 -0.0469543 0
1.13328 -0.0246538 0
1.125 0 0
1.65915 0.144865 0
1.74396 0.0866793 0
1.81488 0.0324689 0
1.6637 0.0402254 0
1.70314 0.0308657 0
1.72913 0.000926318 0
1.55927 0.0345969 0
1.55656 0.0251183 0
1.56452 0.00422585 0
1.81488 0.0324689 0
1.84769 -0.0481797 0
1.86526 -0.118171 0
1.72913 0.000926318 0
1.73671 -0.046458 0
1.72651 -0.10282 0
1.56452 0.00422585 0
1.55469 -0.0328616 0
1.54559 -0.0755245 0
1.55927 0.0345969 0
1.55656 0.0251183 0
1.56452 0.00422585 0
1.42294 -0.00522983 0
1.42407 -0.0153297 0
1.42572 -0.032187 0
1.325 -0.00592604 0
1.31139 -0.0117521 0
1.30296 -0.0211576 0
1.56452 0.00422585 0
1.55469 -0.0328616 0
1.54559 -0.0755245 0
1.42572 -0.032187 0
1.41808 -0.0550282 0
1.40565 -0.0811775 0
1.30296 -0.0211576 0
1.28085 -0.0362002 0
1.26003 -0.0535416 0
1.86526 -0.118171 0
1.84622 -0.196999 0
1.80424 -0.265049 0
1.72651 -0.10282 0
1.69224 -0.163384 0
1.63799 -0.214241 0
1.54559 -0.0755245 0
1.51518 -0.121549 0
1.48042 -0.163581 0
1.80424 -0.265049 0
1.72571 -0.317231 0
1.64983 -0.365538 0
1.63799 -0.214241 0
1.58081 -0.257347 0
1.50581 -0.287008 0
1.48042 -0.163581 0
1.42808 -0.19815 0
1.37128 -0.227449 0
1.54559 -0.0755245 0
1.51518 -0.121549 0
1.48042 -0.163581 0
1.40565 -0.0811775 0
1.37952 -0.108989 0
1.34586 -0.135556 0
1.26003 -0.0535416 0
1.2258 -0.0734214 0
1.18969 -0.0922902 0
1.48042 -0.163581 0
1.42808 -0.19815 0
1.37128 -0.227449 0
1.34586 -0.135556 0
1.3026 -0.158931 0
1.25183 -0.175984 0
1.18969 -0.0922902 0
1.14283 -0.10861 0
1.09167 -0.121141 0
1.325 -0.00592604 0
1.31139 -0.0117521 0
1.30296 -0.0211576 0
1.16254 0.00284422 0
1.14542 -0.00336145 0
1.13093 -0.011985 0
0.954042 0.0137609 0
0.941873 0.00964504 0
0.930729 0.00426227 0
1.30296 -0.0211576 0
1.28085 -0.0362002 0
1.26003 -0.0535416 0
1.13093 -0.011985 0
1.10879 -0.0239799 0
1.08622 -0.0371668 0
0.930729 0.00426227 0
0.912017 -0.00330768 0
0.891916 -0.0116514 0
0.954042 0.0137609 0
0.941873 0.00964504 0
0.930729 0.00426227 0
0.572071 0.00598822 0
0.571879 0.0046296 0
0.573694 0.00306181 0
0 0 0
0 0 0
0 0 0
0.930729 0.00426227 0
0.912017 -0.00330768 0
0.891916 -0.0116514 0
0.573694 0.00306181 0
0.568619 0.000745789 0
0.562339 -0.00192979 0
0 0 0
0 0 0
0 0 0
1.26003 -0.0535416 0
1.2258 -0.0734214 0
1.18969 -0.0922902 0
1.08622 -0.0371668 0
1.05484 -0.0514645 0
1.02034 -0.0646493 0
0.891916 -0.0116514 0
0.864124 -0.0209695 0
0.833436 -0.0298 0
1.18969 -0.0922902 0
1.14283 -0.10861 0
1.09167 -0.121141 0
1.02034 -0.0646493 0
0.979896 -0.0763358 0
0.935836 -0.0857181 0
0.833436 -0.0298 0
0.797346 -0.0376382 0
0.757174 -0.0436322 0
0.891916 -0.0116514 0
0.864124 -0.0209695 0
0.833436 -0.0298 0
0.562339 -0.00192979 0
0.54932 -0.0048552 0
0.531826 -0.00803681 0
0 0 0
0 0 0
0 0 0
0.833436 -0.0298 0
0.797346 -0.0376382 0
0.757174 -0.0436322 0
0.531826 -0.00803681 0
0.51003 -0.010837 0
0.482113 -0.0133181 0
0 0 0
0 0 0
0 0 0
1.91725 -0.0812525 0
1.77584 -0.161421 0
1.70639 -0.178951 0
1.82878 0.0233507 0
1.76772 -0.0473993 0
1.68094 -0.100109 0
1.67516 0.0467972 0
1.65718 -0.013736 0
1.6409 -0.0585601 0
1.70639 -0.178951 0
1.60301 -0.150098 0
1.54463 -0.0798195 0
1.68094 -0.100109 0
1.6182 -0.115561 0
1.55252 -0.102467 0
1.6409 -0.0585601 0
1.60502 -0.0750219 0
1.57649 -0.0665365 0
1.67516 0.0467972 0
1.65718 -0.013736 0
1.6409 -0.0585601 0
1.53497 0.0655962 0
1.52132 0.0292489 0
1.49548 -0.00139249 0
1.35378 0.0730404 0
1.35314 0.0438583 0
1.34924 0.0175919 0
1.6409 -0.0585601 0
1.60502 -0.0750219 0
1.57649 -0.0665365 0
1.49548 -0.00139249 0
1.46714 -0.0144823 0
1.43521 -0.0218768 0
1.34924 0.0175919 0
1.33855 0.00167737 0
1.33363 -0.00841769 0
1.54463 -0.0798195 0
1.50871 -0.00843522 0
1.51397 0.0616816 0
1.55252 -0.102467 0
1.55496 -0.0569323 0
1.56447 -0.0130656 0
1.57649 -0.0665365 0
1.5435 -0.0387479 0
1.52923 -0.00802993 0
1.51397 0.0616816 0
1.56798 0.106709 0
1.65915 0.144865 0
1.56447 -0.0130656 0
1.61355 0.0246824 0
1.6637 0.0402254 0
1.52923 -0.00802993 0
1.53243 0.0178811 0
1.55927 0.0345969 0
1.57649 -0.0665365 0
1.5435 -0.0387479 0
1.52923 -0.00802993 0
1.43521 -0.0218768 0
1.4166 -0.0176936 0
1.40427 -0.0119781 0
1.33363 -0.00841769 0
1.32378 -0.00915225 0
1.32231 -0.00738529 0
1.52923 -0.00802993 0
1.53243 0.0178811 0
1.55927 0.0345969 0
1.40427 -0.0119781 0
1.40978 -0.00461279 0
1.42294 -0.00522983 0
1.32231 -0.00738529 0
1.31873 -0.00451316 0
1.325 -0.00592604 0
1.35378 0.0730404 0
1.35314 0.0438583 0
1.34924 0.0175919 0
1.14629 0.0617491 0
1.16565 0.0467793 0
1.17838 0.032241 0
0.818682 0.0435151 0
0.855092 0.0367143 0
0.885873 0.0296775 0
1.34924 0.0175919 0
1.33855 0.00167737 0
1.33363 -0.00841769 0
1.17838 0.032241 0
1.17863 0.0226396 0
1.17737 0.0150628 0
0.885873 0.0296775 0
0.905709 0.0241586 0
0.922973 0.0196601 0
0.818682 0.0435151 0
0.855092 0.0367143 0
0.885873 0.0296775 0
0.426067 0.00883767 0
0.445554 0.00902491 0
0.470781 0.00845053 0
0 0 0
0 0 0
0 0 0
0.885873 0.0296775 0
0.905709 0.0241586 0
0.922973 0.0196601 0
0.470781 0.00845053 0
0.488597 0.00803278 0
0.508953 0.00732656 0
0 0 0
0 0 0
0 0 0
1.33363 -0.00841769 0
1.32378 -0.00915225 0
1.32231 -0.00738529 0
1.17737 0.0150628 0
1.17088 0.0113186 0
1.16764 0.00889888 0
0.922973 0.0196601 0
0.933439 0.0176749 0
0.943907 0.0165307 0
1.32231 -0.00738529 0
1.31873 -0.00451316 0
1.325 -0.00592604 0
1.16764 0.00889888 0
1.1627 0.00682509 0
1.16254 0.00284422 0
0.943907 0.0165307 0
0.948617 0.0159471 0
0.954042 0.0137609 0
0.922973 0.0196601 0
0.933439 0.0176749 0
0.943907 0.0165307 0
0.508953 0.00732656 0
0.523635 0.00706401 0
0.542052 0.00683597 0
0 0 0
0 0 0
0 0 0
0.943907 0.0165307 0
0.948617 0.0159471 0
0.954042 0.0137609 0
0.542052 0.00683597 0
0.555062 0.00631095 0
0.572071 0.00598822 0
0 0 0
0 0 0
0 0 0
0.763469 -1.25061 0
0.676961 -1.4367 0
0.58438 -1.35072 0
0.600013 -1.20466 0
0.480908 -1.30327 0
0.301275 -1.22393 0
0.559809 -1.16708 0
0.346064 -1.11637 0
0.13977 -1.10531 0
0.58438 -1.35072 0
0.437329 -1.2905 0
0.425382 -0.867434 0
0.301275 -1.22393 0
0.138245 -1.09698 0
0.0907174 -0.576302 0
0.13977 -1.10531 0
-0.0704348 -0.946573 0
-0.18304 -0.437029 0
0.559809 -1.16708 0
0.346064 -1.11637 0
0.13977 -1.10531 0
0.497211 -1.06218 0
0.286896 -0.867612 0
0.0779809 -0.940117 0
0.518233 -0.890281 0
0.308337 -0.653663 0
0.0735422 -0.678886 0
0.13977 -1.10531 0
-0.0704348 -0.946573 0
-0.18304 -0.437029 0
0.0779809 -0.940117 0
-0.14237 -0.707147 0
-0.283734 -0.200531 0
0.0735422 -0.678886 0
-0.139191 -0.525669 0
-0.260662 -0.117129 0
0.425382 -0.867434 0
0.19023 -0.39367 0
0.0831857 0.0969345 0
0.0907174 -0.576302 0
-0.153407 -0.146025 0
-0.310631 0.228394 0
-0.18304 -0.437029 0
-0.434398 -0.0609039 0
-0.623689 0.279157 0
0.0831857 0.0969345 0
-0.0423479 0.537482 0
-0.193167 0.837127 0
-0.310631 0.228394 0
-0.369013 0.598701 0
-0.458224 0.857572 0
-0.623689 0.279157 0
-0.661816 0.630071 0
-0.672289 0.854478 0
-0.18304 -0.437029 0
-0.434398 -0.0609039 0
-0.623689 0.279157 0
-0.283734 -0.200531 0
-0.516928 0.20123 0
-0.647051 0.539296 0
-0.260662 -0.117129 0
-0.379514 0.220057 0
-0.403205 0.44151 0
-0.623689 0.279157 0
-0.661816 0.630071 0
-0.672289 0.854478 0
-0.647051 0.539296 0
-0.669671 0.752576 0
-0.574591 0.848416 0
-0.403205 0.44151 0
-0.339333 0.641172 0
-0.166634 0.710298 0
0.518233 -0.890281 0
0.308337 -0.653663 0
0.0735422 -0.678886 0
0.826245 -0.608197 0
0.49708 -0.534004 0
0.253603 -0.55232 0
1.21192 -0.320416 0
1.02253 -0.316063 0
0.71114 -0.30927 0
0.0735422 -0.678886 0
-0.139191 -0.525669 0
-0.260662 -0.117129 0
0.253603 -0.55232 0
0.118834 -0.363456 0
0.0395116 0.00998332 0
0.71114 -0.30927 0
0.674862 -0.0952876 0
0.518578 0.0432374 0
1.21192 -0.320416 0
1.02253 -0.316063 0
0.71114 -0.30927 0
1.55882 -0.180468 0
1.39917 -0.245415 0
1.21933 -0.276534 0
1.91725 -0.0812525 0
1.77584 -0.161421 0
1.70639 -0.178951 0
0.71114 -0.30927 0
0.674862 -0.0952876 0
0.518578 0.0432374 0
1.21933 -0.276534 0
1.15187 -0.207874 0
1.12998 -0.132012 0
1.70639 -0.178951 0
1.60301 -0.150098 0
1.54463 -0.0798195 0
-0.260662 -0.117129 0
-0.379514 0.220057 0
-0.403205 0.44151 0
0.0395116 0.00998332 0
0.0289245 0.246923 0
0.125764 0.471007 0
0.518578 0.0432374 0
0.6541 0.19427 0
0.785436 0.28317 0
-0.403205 0.44151 0
-0.339333 0.641172 0
-0.166634 0.710298 0
0.125764 0.471007 0
0.279429 0.588111 0
0.420547 0.57685 0
0.785436 0.28317 0
0.967125 0.345276 0
1.14373 0.381758 0
0.518578 0.0432374 0
0.6541 0.19427 0
0.785436 0.28317 0
1.12998 -0.132012 0
1.20611 -0.0119918 0
1.33265 0.11013 0
1.54463 -0.0798195 0
1.50871 -0.00843522 0
1.51397 0.0616816 0
0.785436 0.28317 0
0.967125 0.345276 0
1.14373 0.381758 0
1.33265 0.11013 0
1.45078 0.210652 0
1.60629 0.258934 0
1.51397 0.0616816 0
1.56798 0.106709 0
1.65915 0.144865 0
1.21967 -0.478465 0
1.39187 -0.56738 0
1.61484 -0.62709 0
1.31869 -0.631661 0
1.49482 -0.734366 0
1.65175 -0.778331 0
1.36197 -0.783622 0
1.49585 -0.860842 0
1.57456 -0.891838 0
1.61484 -0.62709 0
1.79892 -0.638511 0
1.91927 -0.587507 0
1.65175 -0.778331 0
1.73973 -0.773021 0
1.86542 -0.760634 0
1.57456 -0.891838 0
1.77334 -0.934102 0
2.07073 -0.94281 0
1.36197 -0.783622 0
1.49585 -0.860842 0
1.57456 -0.891838 0
1.29503 -0.905439 0
1.42002 -0.930848 0
1.56375 -1.06215 0
1.17738 -0.932324 0
1.37064 -1.06056 0
1.57983 -1.29542 0
1.57456 -0.891838 0
1.77334 -0.934102 0
2.07073 -0.94281 0
1.56375 -1.06215 0
1.86618 -1.15617 0
2.01568 -1.07096 0
1.57983 -1.29542 0
1.7466 -1.29089 0
1.69521 -1.07913 0
1.91927 -0.587507 0
1.97306 -0.509199 0
2.04878 -0.412378 0
1.86542 -0.760634 0
2.06494 -0.705795 0
2.24301 -0.574763 0
2.07073 -0.94281 0
2.25699 -0.787635 0
2.2652 -0.563186 0
2.04878 -0.412378 0
2.10997 -0.29457 0
2.16517 -0.163456 0
2.24301 -0.574763 0
2.29731 -0.389246 0
2.29087 -0.187672 0
2.2652 -0.563186 0
2.08734 -0.327229 0
1.82493 -0.104922 0
2.07073 -0.94281 0
2.25699 -0.787635 0
2.2652 -0.563186 0
2.01568 -1.07096 0
1.94467 -0.819564 0
1.7862 -0.516693 0
1.69521 -1.07913 0
1.59075 -0.791557 0
1.44934 -0.37043 0
2.2652 -0.563186 0
2.08734 -0.327229 0
1.82493 -0.104922 0
1.7862 -0.516693 0
1.52602 -0.175962 0
1.24611 0.0899317 0
1.44934 -0.37043 0
1.20765 0.00225189 0
0.933512 0.333329 0
1.17738 -0.932324 0
1.37064 -1.06056 0
1.57983 -1.29542 0
1.06584 -1.04459 0
1.27802 -1.30337 0
1.39745 -1.4362 0
0.946984 -1.13832 0
1.10515 -1.4661 0
1.15276 -1.4887 0
1.57983 -1.29542 0
1.7466 -1.29089 0
1.69521 -1.07913 0
1.39745 -1.4362 0
1.41906 -1.31824 0
1.41615 -1.0551 0
1.15276 -1.4887 0
1.13377 -1.35915 0
1.14921 -0.998779 0
0.946984 -1.13832 0
1.10515 -1.4661 0
1.15276 -1.4887 0
0.822929 -1.22268 0
0.90471 -1.49696 0
0.871721 -1.40979 0
0.763469 -1.25061 0
0.676961 -1.4367 0
0.58438 -1.35072 0
1.15276 -1.4887 0
1.13377 -1.35915 0
1.14921 -0.998779 0
0.871721 -1.40979 0
0.798611 -1.30285 0
0.740067 -0.88255 0
0.58438 -1.35072 0
0.437329 -1.2905 0
0.425382 -0.867434 0
1.69521 -1.07913 0
1.59075 -0.791557 0
1.44934 -0.37043 0
1.41615 -1.0551 0
1.31722 -0.66689 0
1.1601 -0.176735 0
1.14921 -0.998779 0
0.906658 -0.505246 0
0.768296 -0.0381854 0
1.44934 -0.37043 0
1.20765 0.00225189 0
0.933512 0.333329 0
1.1601 -0.176735 0
0.94411 0.144905 0
0.701046 0.507394 0
0.768296 -0.0381854 0
0.577931 0.265274 0
0.372329 0.656847 0
1.14921 -0.998779 0
0.906658 -0.505246 0
0.768296 -0.0381854 0
0.740067 -0.88255 0
0.491357 -0.434565 0
0.436425 0.013031 0
0.425382 -0.867434 0
0.19023 -0.39367 0
0.0831857 0.0969345 0
0.768296 -0.0381854 0
0.577931 0.265274 0
0.372329 0.656847 0
0.436425 0.013031 0
0.276093 0.354613 0
0.0815627 0.698459 0
0.0831857 0.0969345 0
-0.0423479 0.537482 0
-0.193167 0.837127 0
0 0 0
0 0 0
0 0 0
0.19512 -0.0193736 0
0.244852 -0.0227691 0
0.278558 -0.0252609 0
0.482194 -0.0460813 0
0.533396 -0.0623989 0