# vtk DataFile Version 3.0
#This file was generated by the deal.II library on 2025/1/4 at 10:05:39
ASCII
DATASET UNSTRUCTURED_GRID

POINTS 8640 double
1.1 1.1 0
0.9625 1.09063 0
0.825 1.08125 0
1.0875 0.9625 0
0.951563 0.954297 0
0.815625 0.946094 0
1.075 0.825 0
0.940625 0.817969 0
0.80625 0.810937 0
0.825 1.08125 0
0.6875 1.07187 0
0.55 1.0625 0
0.815625 0.946094 0
0.679688 0.937891 0
0.54375 0.929688 0
0.80625 0.810937 0
0.671875 0.803906 0
0.5375 0.796875 0
1.075 0.825 0
0.940625 0.817969 0
0.80625 0.810937 0
1.0625 0.6875 0
0.929688 0.681641 0
0.796875 0.675781 0
1.05 0.55 0
0.91875 0.545313 0
0.7875 0.540625 0
0.80625 0.810937 0
0.671875 0.803906 0
0.5375 0.796875 0
0.796875 0.675781 0
0.664062 0.669922 0
0.53125 0.664062 0
0.7875 0.540625 0
0.65625 0.535937 0
0.525 0.53125 0
0.55 1.0625 0
0.4125 1.05313 0
0.275 1.04375 0
0.54375 0.929688 0
0.407813 0.921484 0
0.271875 0.913281 0
0.5375 0.796875 0
0.403125 0.789844 0
0.26875 0.782813 0
0.275 1.04375 0
0.1375 1.03437 0
0 1.025 0
0.271875 0.913281 0
0.135938 0.905078 0
0 0.896875 0
0.26875 0.782813 0
0.134375 0.775781 0
0 0.76875 0
0.5375 0.796875 0
0.403125 0.789844 0
0.26875 0.782813 0
0.53125 0.664062 0
0.398438 0.658203 0
0.265625 0.652344 0
0.525 0.53125 0
0.39375 0.526563 0
0.2625 0.521875 0
0.26875 0.782813 0
0.134375 0.775781 0
0 0.76875 0
0.265625 0.652344 0
0.132812 0.646484 0
0 0.640625 0
0.2625 0.521875 0
0.13125 0.517187 0
0 0.5125 0
1.05 0.55 0
0.91875 0.545313 0
0.7875 0.540625 0
1.0375 0.4125 0
0.907812 0.408984 0
0.778125 0.405469 0
1.025 0.275 0
0.896875 0.272656 0
0.76875 0.270313 0
0.7875 0.540625 0
0.65625 0.535937 0
0.525 0.53125 0
0.778125 0.405469 0
0.648438 0.401953 0
0.51875 0.398438 0
0.76875 0.270313 0
0.640625 0.267969 0
0.5125 0.265625 0
1.025 0.275 0
0.896875 0.272656 0
0.76875 0.270313 0
1.0125 0.1375 0
0.885937 0.136328 0
0.759375 0.135156 0
1 0 0
0.875 0 0
0.75 0 0
0.76875 0.270313 0
0.640625 0.267969 0
0.5125 0.265625 0
0.759375 0.135156 0
0.632812 0.133984 0
0.50625 0.132812 0
0.75 0 0
0.625 0 0
0.5 0 0
0.525 0.53125 0
0.39375 0.526563 0
0.2625 0.521875 0
0.51875 0.398438 0
0.389062 0.394922 0
0.259375 0.391406 0
0.5125 0.265625 0
0.384375 0.263281 0
0.25625 0.260937 0
0.2625 0.521875 0
0.13125 0.517187 0
0 0.5125 0
0.259375 0.391406 0
0.129688 0.387891 0
0 0.384375 0
0.25625 0.260937 0
0.128125 0.258594 0
0 0.25625 0
0.5125 0.265625 0
0.384375 0.263281 0
0.25625 0.260937 0
0.50625 0.132812 0
0.379687 0.131641 0
0.253125 0.130469 0
0.5 0 0
0.375 0 0
0.25 0 0
0.25625 0.260937 0
0.128125 0.258594 0
0 0.25625 0
0.253125 0.130469 0
0.126562 0.129297 0
0 0.128125 0
0.25 0 0
0.125 0 0
0 0 0
2 1 0
1.8875 1.0125 0
1.775 1.025 0
2 0.875 0
1.88594 0.885938 0
1.77188 0.896875 0
2 0.75 0
1.88437 0.759375 0
1.76875 0.76875 0
1.775 1.025 0
1.6625 1.0375 0
1.55 1.05 0
1.77188 0.896875 0
1.65781 0.907813 0
1.54375 0.91875 0
1.76875 0.76875 0
1.65313 0.778125 0
1.5375 0.7875 0
2 0.75 0
1.88437 0.759375 0
1.76875 0.76875 0
2 0.625 0
1.88281 0.632812 0
1.76562 0.640625 0
2 0.5 0
1.88125 0.50625 0
1.7625 0.5125 0
1.76875 0.76875 0
1.65313 0.778125 0
1.5375 0.7875 0
1.76562 0.640625 0
1.64844 0.648438 0
1.53125 0.65625 0
1.7625 0.5125 0
1.64375 0.51875 0
1.525 0.525 0
1.55 1.05 0
1.4375 1.0625 0
1.325 1.075 0
1.54375 0.91875 0
1.42969 0.929688 0
1.31563 0.940625 0
1.5375 0.7875 0
1.42188 0.796875 0
1.30625 0.80625 0
1.325 1.075 0
1.2125 1.0875 0
1.1 1.1 0
1.31563 0.940625 0
1.20156 0.951563 0
1.0875 0.9625 0
1.30625 0.80625 0
1.19063 0.815625 0
1.075 0.825 0
1.5375 0.7875 0
1.42188 0.796875 0
1.30625 0.80625 0
1.53125 0.65625 0
1.41406 0.664062 0
1.29688 0.671875 0
1.525 0.525 0
1.40625 0.53125 0
1.2875 0.5375 0
1.30625 0.80625 0
1.19063 0.815625 0
1.075 0.825 0
1.29688 0.671875 0
1.17969 0.679688 0
1.0625 0.6875 0
1.2875 0.5375 0
1.16875 0.54375 0
1.05 0.55 0
2 0.5 0
1.88125 0.50625 0
1.7625 0.5125 0
2 0.375 0
1.87969 0.379687 0
1.75938 0.384375 0
2 0.25 0
1.87813 0.253125 0
1.75625 0.25625 0
1.7625 0.5125 0
1.64375 0.51875 0
1.525 0.525 0
1.75938 0.384375 0
1.63906 0.389063 0
1.51875 0.39375 0
1.75625 0.25625 0
1.63438 0.259375 0
1.5125 0.2625 0
2 0.25 0
1.87813 0.253125 0
1.75625 0.25625 0
2 0.125 0
1.87656 0.126562 0
1.75313 0.128125 0
2 0 0
1.875 0 0
1.75 0 0
1.75625 0.25625 0
1.63438 0.259375 0
1.5125 0.2625 0
1.75313 0.128125 0
1.62969 0.129688 0
1.50625 0.13125 0
1.75 0 0
1.625 0 0
1.5 0 0
1.525 0.525 0
1.40625 0.53125 0
1.2875 0.5375 0
1.51875 0.39375 0
1.39844 0.398438 0
1.27813 0.403125 0
1.5125 0.2625 0
1.39062 0.265625 0
1.26875 0.26875 0
1.2875 0.5375 0
1.16875 0.54375 0
1.05 0.55 0
1.27813 0.403125 0
1.15781 0.407813 0
1.0375 0.4125 0
1.26875 0.26875 0
1.14688 0.271875 0
1.025 0.275 0
1.5125 0.2625 0
1.39062 0.265625 0
1.26875 0.26875 0
1.50625 0.13125 0
1.38281 0.132812 0
1.25937 0.134375 0
1.5 0 0
1.375 0 0
1.25 0 0
1.26875 0.26875 0
1.14688 0.271875 0
1.025 0.275 0
1.25937 0.134375 0
1.13594 0.135938 0
1.0125 0.1375 0
1.25 0 0
1.125 0 0
1 0 0
1 2 0
0.875 2.00625 0
0.75 2.0125 0
1.0125 1.8875 0
0.885938 1.8918 0
0.759375 1.89609 0
1.025 1.775 0
0.896875 1.77734 0
0.76875 1.77969 0
0.75 2.0125 0
0.625 2.01875 0
0.5 2.025 0
0.759375 1.89609 0
0.632812 1.90039 0
0.50625 1.90469 0
0.76875 1.77969 0
0.640625 1.78203 0
0.5125 1.78437 0
1.025 1.775 0
0.896875 1.77734 0
0.76875 1.77969 0
1.0375 1.6625 0
0.907813 1.66289 0
0.778125 1.66328 0
1.05 1.55 0
0.91875 1.54844 0
0.7875 1.54688 0
0.76875 1.77969 0
0.640625 1.78203 0
0.5125 1.78437 0
0.778125 1.66328 0
0.648438 1.66367 0
0.51875 1.66406 0
0.7875 1.54688 0
0.65625 1.54531 0
0.525 1.54375 0
0.5 2.025 0
0.375 2.03125 0
0.25 2.0375 0
0.50625 1.90469 0
0.379687 1.90898 0
0.253125 1.91328 0
0.5125 1.78437 0
0.384375 1.78672 0
0.25625 1.78906 0
0.25 2.0375 0
0.125 2.04375 0
0 2.05 0
0.253125 1.91328 0
0.126562 1.91758 0
0 1.92187 0
0.25625 1.78906 0
0.128125 1.79141 0
0 1.79375 0
0.5125 1.78437 0
0.384375 1.78672 0
0.25625 1.78906 0
0.51875 1.66406 0
0.389062 1.66445 0
0.259375 1.66484 0
0.525 1.54375 0
0.39375 1.54219 0
0.2625 1.54062 0
0.25625 1.78906 0
0.128125 1.79141 0
0 1.79375 0
0.259375 1.66484 0
0.129688 1.66523 0
0 1.66562 0
0.2625 1.54062 0
0.13125 1.53906 0
0 1.5375 0
1.05 1.55 0
0.91875 1.54844 0
0.7875 1.54688 0
1.0625 1.4375 0
0.929688 1.43398 0
0.796875 1.43047 0
1.075 1.325 0
0.940625 1.31953 0
0.80625 1.31406 0
0.7875 1.54688 0
0.65625 1.54531 0
0.525 1.54375 0
0.796875 1.43047 0
0.664062 1.42695 0
0.53125 1.42344 0
0.80625 1.31406 0
0.671875 1.30859 0
0.5375 1.30312 0
1.075 1.325 0
0.940625 1.31953 0
0.80625 1.31406 0
1.0875 1.2125 0
0.951563 1.20508 0
0.815625 1.19766 0
1.1 1.1 0
0.9625 1.09063 0
0.825 1.08125 0
0.80625 1.31406 0
0.671875 1.30859 0
0.5375 1.30312 0
0.815625 1.19766 0
0.679688 1.19023 0
0.54375 1.18281 0
0.825 1.08125 0
0.6875 1.07187 0
0.55 1.0625 0
0.525 1.54375 0
0.39375 1.54219 0
0.2625 1.54062 0
0.53125 1.42344 0
0.398438 1.41992 0
0.265625 1.41641 0
0.5375 1.30312 0
0.403125 1.29766 0
0.26875 1.29219 0
0.2625 1.54062 0
0.13125 1.53906 0
0 1.5375 0
0.265625 1.41641 0
0.132812 1.41289 0
0 1.40937 0
0.26875 1.29219 0
0.134375 1.28672 0
0 1.28125 0
0.5375 1.30312 0
0.403125 1.29766 0
0.26875 1.29219 0
0.54375 1.18281 0
0.407813 1.17539 0
0.271875 1.16797 0
0.55 1.0625 0
0.4125 1.05313 0
0.275 1.04375 0
0.26875 1.29219 0
0.134375 1.28672 0
0 1.28125 0
0.271875 1.16797 0
0.135938 1.16055 0
0 1.15312 0
0.275 1.04375 0
0.1375 1.03437 0
0 1.025 0
2.9 1.1 0
2.7875 1.0875 0
2.675 1.075 0
2.9125 0.9625 0
2.79844 0.951563 0
2.68438 0.940625 0
2.925 0.825 0
2.80938 0.815625 0
2.69375 0.80625 0
2.675 1.075 0
2.5625 1.0625 0
2.45 1.05 0
2.68438 0.940625 0
2.57031 0.929688 0
2.45625 0.91875 0
2.69375 0.80625 0
2.57812 0.796875 0
2.4625 0.7875 0
2.925 0.825 0
2.80938 0.815625 0
2.69375 0.80625 0
2.9375 0.6875 0
2.82031 0.679688 0
2.70312 0.671875 0
2.95 0.55 0
2.83125 0.54375 0
2.7125 0.5375 0
2.69375 0.80625 0
2.57812 0.796875 0
2.4625 0.7875 0
2.70312 0.671875 0
2.58594 0.664062 0
2.46875 0.65625 0
2.7125 0.5375 0
2.59375 0.53125 0
2.475 0.525 0
2.45 1.05 0
2.3375 1.0375 0
2.225 1.025 0
2.45625 0.91875 0
2.34219 0.907813 0
2.22813 0.896875 0
2.4625 0.7875 0
2.34688 0.778125 0
2.23125 0.76875 0
2.225 1.025 0
2.1125 1.0125 0
2 1 0
2.22813 0.896875 0
2.11406 0.885938 0
2 0.875 0
2.23125 0.76875 0
2.11563 0.759375 0
2 0.75 0
2.4625 0.7875 0
2.34688 0.778125 0
2.23125 0.76875 0
2.46875 0.65625 0
2.35156 0.648438 0
2.23438 0.640625 0
2.475 0.525 0
2.35625 0.51875 0
2.2375 0.5125 0
2.23125 0.76875 0
2.11563 0.759375 0
2 0.75 0
2.23438 0.640625 0
2.11719 0.632812 0
2 0.625 0
2.2375 0.5125 0
2.11875 0.50625 0
2 0.5 0
2.95 0.55 0
2.83125 0.54375 0
2.7125 0.5375 0
2.9625 0.4125 0
2.84219 0.407813 0
2.72188 0.403125 0
2.975 0.275 0
2.85313 0.271875 0
2.73125 0.26875 0
2.7125 0.5375 0
2.59375 0.53125 0
2.475 0.525 0
2.72188 0.403125 0
2.60156 0.398438 0
2.48125 0.39375 0
2.73125 0.26875 0
2.60938 0.265625 0
2.4875 0.2625 0
2.975 0.275 0
2.85313 0.271875 0
2.73125 0.26875 0
2.9875 0.1375 0
2.86406 0.135938 0
2.74063 0.134375 0
3 0 0
2.875 0 0
2.75 0 0
2.73125 0.26875 0
2.60938 0.265625 0
2.4875 0.2625 0
2.74063 0.134375 0
2.61719 0.132812 0
2.49375 0.13125 0
2.75 0 0
2.625 0 0
2.5 0 0
2.475 0.525 0
2.35625 0.51875 0
2.2375 0.5125 0
2.48125 0.39375 0
2.36094 0.389063 0
2.24062 0.384375 0
2.4875 0.2625 0
2.36562 0.259375 0
2.24375 0.25625 0
2.2375 0.5125 0
2.11875 0.50625 0
2 0.5 0
2.24062 0.384375 0
2.12031 0.379687 0
2 0.375 0
2.24375 0.25625 0
2.12188 0.253125 0
2 0.25 0
2.4875 0.2625 0
2.36562 0.259375 0
2.24375 0.25625 0
2.49375 0.13125 0
2.37031 0.129688 0
2.24688 0.128125 0
2.5 0 0
2.375 0 0
2.25 0 0
2.24375 0.25625 0
2.12188 0.253125 0
2 0.25 0
2.24688 0.128125 0
2.12344 0.126562 0
2 0.125 0
2.25 0 0
2.125 0 0
2 0 0
4 1 0
3.8625 1.0125 0
3.725 1.025 0
4 0.875 0
3.86406 0.885938 0
3.72813 0.896875 0
4 0.75 0
3.86563 0.759375 0
3.73125 0.76875 0
3.725 1.025 0
3.5875 1.0375 0
3.45 1.05 0
3.72813 0.896875 0
3.59219 0.907813 0
3.45625 0.91875 0
3.73125 0.76875 0
3.59688 0.778125 0
3.4625 0.7875 0
4 0.75 0
3.86563 0.759375 0
3.73125 0.76875 0
4 0.625 0
[...]
POINT_DATA 8640
VECTORS v double
1.24797 -0.311424 0
1.23014 -0.260503 0
1.19234 -0.202717 0
1.17656 -0.275695 0
1.14603 -0.230372 0
1.11012 -0.185778 0
1.08985 -0.239196 0
1.05043 -0.200533 0
1.01733 -0.163231 0
1.19234 -0.202717 0
1.18503 -0.161964 0
1.16282 -0.116718 0
1.11012 -0.185778 0
1.09272 -0.14585 0
1.07045 -0.109676 0
1.01733 -0.163231 0
0.989515 -0.12822 0
0.968246 -0.0973192 0
1.08985 -0.239196 0
1.05043 -0.200533 0
1.01733 -0.163231 0
0.974539 -0.188528 0
0.933498 -0.159782 0
0.89708 -0.131614 0
0.838772 -0.147118 0
0.798457 -0.126147 0
0.76313 -0.104901 0
1.01733 -0.163231 0
0.989515 -0.12822 0
0.968246 -0.0973192 0
0.89708 -0.131614 0
0.867964 -0.104775 0
0.84406 -0.0795317 0
0.76313 -0.104901 0
0.73369 -0.0838019 0
0.709608 -0.0638075 0
1.16282 -0.116718 0
1.15614 -0.0854058 0
1.13758 -0.0510389 0
1.07045 -0.109676 0
1.05815 -0.0794209 0
1.04083 -0.0490851 0
0.968246 -0.0973192 0
0.948359 -0.0688116 0
0.933807 -0.0428934 0
1.13758 -0.0510389 0
1.13563 -0.0261519 0
1.125 0 0
1.04083 -0.0490851 0
1.03505 -0.0230319 0
1.02539 0 0
0.933807 -0.0428934 0
0.921599 -0.0196224 0
0.914062 0 0
0.968246 -0.0973192 0
0.948359 -0.0688116 0
0.933807 -0.0428934 0
0.84406 -0.0795317 0
0.824371 -0.0563237 0
0.809654 -0.0353458 0
0.709608 -0.0638075 0
0.689994 -0.0454559 0
0.67523 -0.0286749 0
0.933807 -0.0428934 0
0.921599 -0.0196224 0
0.914062 0 0
0.809654 -0.0353458 0
0.79819 -0.016592 0
0.791016 0 0
0.67523 -0.0286749 0
0.663699 -0.0135676 0
0.65625 0 0
0.838772 -0.147118 0
0.798457 -0.126147 0
0.76313 -0.104901 0
0.690683 -0.100826 0
0.650052 -0.0863482 0
0.614306 -0.0715572 0
0.521192 -0.0595373 0
0.482607 -0.0516036 0
0.448551 -0.0434743 0
0.76313 -0.104901 0
0.73369 -0.0838019 0
0.709608 -0.0638075 0
0.614306 -0.0715572 0
0.584189 -0.0570813 0
0.559905 -0.0432085 0
0.448551 -0.0434743 0
0.419802 -0.0352681 0
0.396796 -0.0273503 0
0.521192 -0.0595373 0
0.482607 -0.0516036 0
0.448551 -0.0434743 0
0.308323 -0.0183894 0
0.277758 -0.0155211 0
0.252394 -0.012779 0
0 0 0
0 0 0
0 0 0
0.448551 -0.0434743 0
0.419802 -0.0352681 0
0.396796 -0.0273503 0
0.252394 -0.012779 0
0.230004 -0.00997433 0
0.213254 -0.00744602 0
0 0 0
0 0 0
0 0 0
0.709608 -0.0638075 0
0.689994 -0.0454559 0
0.67523 -0.0286749 0
0.559905 -0.0432085 0
0.540224 -0.0302701 0
0.526087 -0.0184511 0
0.396796 -0.0273503 0
0.378416 -0.0198372 0
0.365631 -0.0128585 0
0.67523 -0.0286749 0
0.663699 -0.0135676 0
0.65625 0 0
0.526087 -0.0184511 0
0.515681 -0.0082513 0
0.509766 0 0
0.365631 -0.0128585 0
0.356471 -0.00642293 0
0.351562 0 0
0.396796 -0.0273503 0
0.378416 -0.0198372 0
0.365631 -0.0128585 0
0.213254 -0.00744602 0
0.199512 -0.00505983 0
0.190729 -0.00293845 0
0 0 0
0 0 0
0 0 0
0.365631 -0.0128585 0
0.356471 -0.00642293 0
0.351562 0 0
0.190729 -0.00293845 0
0.184388 -0.00106607 0
0.181641 0 0
0 0 0
0 0 0
0 0 0
1.74829 -0.408059 0
1.70416 -0.468729 0
1.58839 -0.482171 0
1.62109 -0.326159 0
1.56055 -0.364877 0
1.47736 -0.388024 0
1.47746 -0.249983 0
1.42329 -0.289788 0
1.36744 -0.315799 0
1.58839 -0.482171 0
1.5326 -0.488974 0
1.43029 -0.463577 0
1.47736 -0.388024 0
1.41723 -0.395341 0
1.34013 -0.388744 0
1.36744 -0.315799 0
1.30998 -0.327136 0
1.2546 -0.326124 0
1.47746 -0.249983 0
1.42329 -0.289788 0
1.36744 -0.315799 0
1.35127 -0.191778 0
1.30606 -0.21805 0
1.25059 -0.236236 0
1.18608 -0.126574 0
1.1411 -0.149179 0
1.09232 -0.166282 0
1.36744 -0.315799 0
1.30998 -0.327136 0
1.2546 -0.326124 0
1.25059 -0.236236 0
1.19853 -0.244607 0
1.14108 -0.244834 0
1.09232 -0.166282 0
1.04381 -0.176589 0
0.994423 -0.181021 0
1.43029 -0.463577 0
1.38571 -0.440495 0
1.31474 -0.395027 0
1.34013 -0.388744 0
1.29556 -0.370734 0
1.23825 -0.343386 0
1.2546 -0.326124 0
1.20439 -0.313369 0
1.15963 -0.292989 0
1.31474 -0.395027 0
1.29077 -0.359929 0
1.24797 -0.311424 0
1.23825 -0.343386 0
1.21158 -0.311197 0
1.17656 -0.275695 0
1.15963 -0.292989 0
1.12159 -0.266977 0
1.08985 -0.239196 0
1.2546 -0.326124 0
1.20439 -0.313369 0
1.15963 -0.292989 0
1.14108 -0.244834 0
1.09399 -0.237893 0
1.04618 -0.225256 0
0.994423 -0.181021 0
0.950598 -0.179239 0
0.90838 -0.172687 0
1.15963 -0.292989 0
1.12159 -0.266977 0
1.08985 -0.239196 0
1.04618 -0.225256 0
1.00916 -0.208675 0
0.974539 -0.188528 0
0.90838 -0.172687 0
0.872029 -0.161495 0
0.838772 -0.147118 0
1.18608 -0.126574 0
1.1411 -0.149179 0
1.09232 -0.166282 0
1.02396 -0.0880595 0
0.98611 -0.10446 0
0.941664 -0.116625 0
0.843444 -0.0422026 0
0.808703 -0.053245 0
0.767124 -0.0618505 0
1.09232 -0.166282 0
1.04381 -0.176589 0
0.994423 -0.181021 0
0.941664 -0.116625 0
0.897682 -0.123527 0
0.850082 -0.125826 0
0.767124 -0.0618505 0
0.724874 -0.0671935 0
0.679014 -0.0698008 0
0.843444 -0.0422026 0
0.808703 -0.053245 0
0.767124 -0.0618505 0
0.548101 -0.0132741 0
0.527675 -0.0171589 0
0.498745 -0.0201254 0
0 0 0
0 0 0
0 0 0
0.767124 -0.0618505 0
0.724874 -0.0671935 0
0.679014 -0.0698008 0
0.498745 -0.0201254 0
0.468916 -0.0221164 0
0.433922 -0.0228281 0
0 0 0
0 0 0
0 0 0
0.994423 -0.181021 0
0.950598 -0.179239 0
0.90838 -0.172687 0
0.850082 -0.125826 0
0.807082 -0.123863 0
0.763819 -0.118617 0
0.679014 -0.0698008 0
0.636861 -0.0699384 0
0.594288 -0.0681463 0
0.90838 -0.172687 0
0.872029 -0.161495 0
0.838772 -0.147118 0
0.763819 -0.118617 0
0.725931 -0.110872 0
0.690683 -0.100826 0
0.594288 -0.0681463 0
0.556657 -0.0646654 0
0.521192 -0.0595373 0
0.679014 -0.0698008 0
0.636861 -0.0699384 0
0.594288 -0.0681463 0
0.433922 -0.0228281 0
0.401294 -0.0227857 0
0.367583 -0.0218311 0
0 0 0
0 0 0
0 0 0
0.594288 -0.0681463 0
0.556657 -0.0646654 0
0.521192 -0.0595373 0
0.367583 -0.0218311 0
0.336784 -0.0204538 0
0.308323 -0.0183894 0
0 0 0
0 0 0
0 0 0
1.25074 -0.0768122 0
1.32254 -0.0598376 0
1.37924 -0.0436834 0
1.26763 -0.157875 0
1.3302 -0.120245 0
1.38298 -0.0884549 0
1.26995 -0.215839 0
1.32306 -0.165276 0
1.37189 -0.123969 0
1.37924 -0.0436834 0
1.42027 -0.0314073 0
1.45065 -0.020317 0
1.38298 -0.0884549 0
1.41942 -0.0648585 0
1.44854 -0.0453254 0
1.37189 -0.123969 0
1.40363 -0.0923271 0
1.43202 -0.0658911 0
1.26995 -0.215839 0
1.32306 -0.165276 0
1.37189 -0.123969 0
1.28661 -0.284792 0
1.32765 -0.218482 0
1.36551 -0.164532 0
1.30599 -0.31215 0
1.32867 -0.242248 0
1.35058 -0.184045 0
1.37189 -0.123969 0
1.40363 -0.0923271 0
1.43202 -0.0658911 0
1.36551 -0.164532 0
1.39005 -0.123931 0
1.41285 -0.0893945 0
1.35058 -0.184045 0
1.36653 -0.140066 0
1.38229 -0.101115 0
1.45065 -0.020317 0
1.47324 -0.0122506 0
1.48731 -0.00545646 0
1.44854 -0.0453254 0
1.46893 -0.0302439 0
1.48299 -0.0171576 0
1.43202 -0.0658911 0
1.45046 -0.044406 0
1.46578 -0.026169 0
1.48731 -0.00545646 0
1.49749 -0.0016988 0
1.5 0 0
1.48299 -0.0171576 0
1.4914 -0.00706192 0
1.49414 0 0
1.46578 -0.026169 0
1.47293 -0.0115761 0
1.47656 0 0
1.43202 -0.0658911 0
1.45046 -0.044406 0
1.46578 -0.026169 0
1.41285 -0.0893945 0
1.42706 -0.0618121 0
1.43968 -0.0377682 0
1.38229 -0.101115 0
1.39202 -0.0700189 0
1.40129 -0.0425309 0
1.46578 -0.026169 0
1.47293 -0.0115761 0
1.47656 0 0
1.43968 -0.0377682 0
1.44442 -0.0178631 0
1.44727 0 0
1.40129 -0.0425309 0
1.40425 -0.0203232 0
1.40625 0 0
1.30599 -0.31215 0
1.32867 -0.242248 0
1.35058 -0.184045 0
1.30334 -0.338491 0
1.31675 -0.268711 0
1.32401 -0.206596 0
1.30305 -0.340289 0
1.30397 -0.273242 0
1.29314 -0.211016 0
1.35058 -0.184045 0
1.36653 -0.140066 0
1.38229 -0.101115 0
1.32401 -0.206596 0
1.33517 -0.160329 0
1.3423 -0.11611 0
1.29314 -0.211016 0
1.29748 -0.164356 0
1.29383 -0.118615 0
1.30305 -0.340289 0
1.30397 -0.273242 0
1.29314 -0.211016 0
1.2821 -0.331497 0
1.26888 -0.2729 0
1.24807 -0.212863 0
1.24797 -0.311424 0
1.23014 -0.260503 0
1.19234 -0.202717 0
1.29314 -0.211016 0
1.29748 -0.164356 0
1.29383 -0.118615 0
1.24807 -0.212863 0
1.24336 -0.168861 0
1.23396 -0.122538 0
1.19234 -0.202717 0
1.18503 -0.161964 0
1.16282 -0.116718 0
1.38229 -0.101115 0
1.39202 -0.0700189 0
1.40129 -0.0425309 0
1.3423 -0.11611 0
1.34855 -0.0819947 0
1.35176 -0.0505974 0
1.29383 -0.118615 0
1.29563 -0.0842174 0
1.29118 -0.0511817 0
1.40129 -0.0425309 0
1.40425 -0.0203232 0
1.40625 0 0
1.35176 -0.0505974 0
1.354 -0.0257127 0
1.35352 0 0
1.29118 -0.0511817 0
1.29242 -0.0256473 0
1.28906 0 0
1.29383 -0.118615 0
1.29563 -0.0842174 0
1.29118 -0.0511817 0
1.23396 -0.122538 0
1.22894 -0.0884149 0
1.22 -0.0540179 0
1.16282 -0.116718 0
1.15614 -0.0854058 0
1.13758 -0.0510389 0
1.29118 -0.0511817 0
1.29242 -0.0256473 0
1.28906 0 0
1.22 -0.0540179 0
1.21793 -0.0280137 0
1.21289 0 0
1.13758 -0.0510389 0
1.13563 -0.0261519 0
1.125 0 0
2.02271 0.3131 0
2.12981 0.171963 0
2.06434 0.0804761 0
1.97273 0.292343 0
1.97277 0.204362 0
1.96869 0.107042 0
1.67658 0.276666 0
1.71713 0.197951 0
1.71939 0.124194 0
2.06434 0.0804761 0
2.11897 -0.0339268 0
2.03263 -0.110914 0
1.96869 0.107042 0
1.94265 0.0179595 0
1.90806 -0.0749861 0
1.71939 0.124194 0
1.72069 0.0450377 0
1.69409 -0.0285369 0
1.67658 0.276666 0
1.71713 0.197951 0
1.71939 0.124194 0
1.5282 0.200659 0
1.54853 0.146256 0
1.55632 0.0875017 0
1.35552 0.180342 0
1.37625 0.136739 0
1.38279 0.0922737 0
1.71939 0.124194 0
1.72069 0.0450377 0
1.69409 -0.0285369 0
1.55632 0.0875017 0
1.55206 0.0310572 0
1.53329 -0.0255266 0
1.38279 0.0922737 0
1.37718 0.047341 0
1.36043 0.00367599 0
2.03263 -0.110914 0
2.04846 -0.213612 0
1.92891 -0.282207 0
1.90806 -0.0749861 0
1.85274 -0.156331 0
1.78091 -0.228222 0
1.69409 -0.0285369 0
1.66065 -0.0992558 0
1.61004 -0.159272 0
1.92891 -0.282207 0
1.87995 -0.358152 0
1.74829 -0.408059 0
1.78091 -0.228222 0
1.71302 -0.283758 0
1.62109 -0.326159 0
1.61004 -0.159272 0
1.54589 -0.208614 0
1.47746 -0.249983 0
1.69409 -0.0285369 0
1.66065 -0.0992558 0
1.61004 -0.159272 0
1.53329 -0.0255266 0
1.50432 -0.0761288 0
1.46077 -0.123055 0
1.36043 0.00367599 0
1.3313 -0.0367945 0
1.29341 -0.0733782 0
1.61004 -0.159272 0
1.54589 -0.208614 0
1.47746 -0.249983 0
1.46077 -0.123055 0
1.41244 -0.161503 0
1.35127 -0.191778 0
1.29341 -0.0733782 0
1.24336 -0.102812 0
1.18608 -0.126574 0
1.35552 0.180342 0
1.37625 0.136739 0
1.38279 0.0922737 0
1.13141 0.129824 0
1.15764 0.103139 0
1.17217 0.0727472 0
0.867928 0.0917162 0
0.904914 0.0772268 0
0.930887 0.0603028 0
1.38279 0.0922737 0
1.37718 0.047341 0
1.36043 0.00367599 0
1.17217 0.0727472 0
1.17373 0.0413308 0
1.16374 0.00960088 0
0.930887 0.0603028 0
0.943461 0.0415084 0
0.94484 0.0219737 0
0.867928 0.0917162 0
0.904914 0.0772268 0
0.930887 0.0603028 0
0.493104 0.0269287 0
0.53032 0.0237761 0
0.561321 0.0192856 0
0 0 0
0 0 0
0 0 0
0.930887 0.0603028 0
0.943461 0.0415084 0
0.94484 0.0219737 0
0.561321 0.0192856 0
0.582984 0.0140413 0
0.59598 0.00817871 0
0 0 0
0 0 0
0 0 0
1.36043 0.00367599 0
1.3313 -0.0367945 0
1.29341 -0.0733782 0
1.16374 0.00960088 0
1.1425 -0.0198154 0
1.1106 -0.0467851 0
0.94484 0.0219737 0
0.933717 0.00296379 0
0.9128 -0.0149699 0
1.29341 -0.0733782 0
1.24336 -0.102812 0
1.18608 -0.126574 0
1.1106 -0.0467851 0
1.07139 -0.0693133 0
1.02396 -0.0880595 0
0.9128 -0.0149699 0
0.882349 -0.0300071 0
0.843444 -0.0422026 0
0.94484 0.0219737 0
0.933717 0.00296379 0
0.9128 -0.0149699 0
0.59598 0.00817871 0
0.59836 0.00240324 0
0.590646 -0.00352164 0
0 0 0
0 0 0
0 0 0
0.9128 -0.0149699 0
0.882349 -0.0300071 0
0.843444 -0.0422026 0
0.590646 -0.00352164 0
0.574298 -0.00876738 0
0.548101 -0.0132741 0
0 0 0
0 0 0
0 0 0
1.01146 0.382518 0
1.15302 0.46832 0
1.30106 0.549439 0
0.998143 0.296972 0
1.10418 0.374856 0
1.19928 0.435093 0
0.968224 0.21005 0
1.06816 0.283147 0
1.16015 0.34177 0
1.30106 0.549439 0
1.50633 0.605524 0
1.6935 0.637752 0
1.19928 0.435093 0
1.32408 0.475876 0
1.45894 0.512527 0
1.16015 0.34177 0
1.2506 0.375964 0
1.31394 0.388535 0
0.968224 0.21005 0
1.06816 0.283147 0
1.16015 0.34177 0
0.897425 0.144953 0
0.973524 0.205074 0
1.05464 0.258433 0
0.757456 0.104775 0
0.822738 0.15052 0
0.884754 0.189973 0
1.16015 0.34177 0
1.2506 0.375964 0
1.31394 0.388535 0
1.05464 0.258433 0
1.15519 0.298486 0
1.25148 0.319002 0
0.884754 0.189973 0
0.965863 0.218881 0
1.04212 0.237395 0
1.6935 0.637752 0
1.83133 0.591435 0
1.89344 0.507114 0
1.45894 0.512527 0
1.64428 0.519039 0
1.79972 0.476448 0
1.31394 0.388535 0
1.38571 0.387141 0
1.47192 0.370332 0
1.89344 0.507114 0
1.95845 0.417166 0
2.02271 0.3131 0
1.79972 0.476448 0
1.90568 0.394646 0
1.97273 0.292343 0
1.47192 0.370332 0
1.58092 0.333934 0
1.67658 0.276666 0
1.31394 0.388535 0
1.38571 0.387141 0
1.47192 0.370332 0
1.25148 0.319002 0
1.3423 0.31526 0
1.4144 0.290913 0
1.04212 0.237395 0
1.1328 0.245485 0
1.21833 0.239632 0
1.47192 0.370332 0
1.58092 0.333934 0
1.67658 0.276666 0
1.4144 0.290913 0
1.47719 0.251552 0
1.5282 0.200659 0
1.21833 0.239632 0
1.29643 0.21714 0
1.35552 0.180342 0
0.757456 0.104775 0
0.822738 0.15052 0
0.884754 0.189973 0
0.574125 0.064133 0
0.62991 0.0952392 0
0.685867 0.123233 0
0.35212 0.029284 0
0.398228 0.0466455 0
0.441013 0.0628969 0
0.884754 0.189973 0
0.965863 0.218881 0
1.04212 0.237395 0
0.685867 0.123233 0
0.765939 0.144134 0
0.843875 0.157925 0
0.441013 0.0628969 0
0.50615 0.0765163 0
0.572732 0.0878639 0
0.35212 0.029284 0
0.398228 0.0466455 0
0.441013 0.0628969 0
0.115338 0.0155803 0
0.158302 0.0196211 0
0.190253 0.0229116 0
0 0 0
0 0 0
0 0 0
0.441013 0.0628969 0
0.50615 0.0765163 0
0.572732 0.0878639 0
0.190253 0.0229116 0
0.23658 0.0244584 0
0.2817 0.0254839 0
0 0 0
0 0 0
0 0 0
1.04212 0.237395 0
1.1328 0.245485 0
1.21833 0.239632 0
0.843875 0.157925 0
0.927853 0.162924 0
1.00283 0.159961 0
0.572732 0.0878639 0
0.652105 0.0966154 0
0.729501 0.10111 0
1.21833 0.239632 0
1.29643 0.21714 0
1.35552 0.180342 0
1.00283 0.159961 0
1.07312 0.149018 0
1.13141 0.129824 0
0.729501 0.10111 0
0.803975 0.0996556 0
0.867928 0.0917162 0
0.572732 0.0878639 0
0.652105 0.0966154 0
0.729501 0.10111 0
0.2817 0.0254839 0
0.334315 0.0266267 0
0.386292 0.0271632 0
0 0 0
0 0 0
0 0 0
0.729501 0.10111 0
0.803975 0.0996556 0
0.867928 0.0917162 0
0.386292 0.0271632 0
0.440741 0.027637 0
0.493104 0.0269287 0
0 0 0
0 0 0
0 0 0
0.780933 1.31504 0
0.781635 1.31522 0
0.706175 1.54608 0
0.833246 1.25365 0
0.877296 1.30898 0
0.934577 1.51889 0
0.90462 1.12848 0
0.985772 1.25402 0
1.1136 1.43664 0
0.706175 1.54608 0
0.69726 1.5959 0
0.650877 1.32426 0
0.934577 1.51889 0
0.964712 1.59244 0
0.961678 1.39617 0
1.1136 1.43664 0
1.20747 1.57745 0
1.2648 1.45981 0
0.90462 1.12848 0
0.985772 1.25402 0
1.1136 1.43664 0
0.951028 1.00328 0
1.10269 1.14904 0
1.25513 1.27555 0
1.02832 0.839404 0
1.18299 0.988277 0
1.34522 1.09772 0
1.1136 1.43664 0
1.20747 1.57745 0
1.2648 1.45981 0
1.25513 1.27555 0
1.40949 1.43273 0
1.48959 1.40636 0
1.34522 1.09772 0
1.58125 1.26451 0
1.75862 1.29322 0
0.650877 1.32426 0
0.440176 0.859719 0
0.357428 0.330312 0
0.961678 1.39617 0
0.759447 0.898827 0
0.614941 0.36538 0
1.2648 1.45981 0
1.15691 1.02175 0
1.00225 0.429375 0
0.357428 0.330312 0
0.206823 -0.102373 0
-0.0525433 -0.529579 0
0.614941 0.36538 0
0.432616 -0.0120952 0
0.233162 -0.44053 0
1.00225 0.429375 0
0.739589 -0.0120617 0
0.606326 -0.441361 0
1.2648 1.45981 0
1.15691 1.02175 0
1.00225 0.429375 0
1.48959 1.40636 0
1.4609 1.11895 0
1.40894 0.640502 0
1.75862 1.29322 0
1.74357 1.15016 0
1.69256 0.813871 0
1.00225 0.429375 0
0.739589 -0.0120617 0
0.606326 -0.441361 0
1.40894 0.640502 0
1.13244 0.191276 0
0.923745 -0.236887 0
1.69256 0.813871 0
1.40471 0.414349 0
1.10213 -0.0411201 0
1.02832 0.839404 0
1.18299 0.988277 0
1.34522 1.09772 0
1.07309 0.739646 0
1.23033 0.867382 0
1.35369 0.948251 0
1.06947 0.606679 0
1.29704 0.739001 0
1.40204 0.831692 0
1.34522 1.09772 0
1.58125 1.26451 0
1.75862 1.29322 0
1.35369 0.948251 0
1.55724 1.0748 0
1.82854 1.14758 0
1.40204 0.831692 0
1.54267 0.886854 0
1.68723 0.92089 0
1.06947 0.606679 0
1.29704 0.739001 0
1.40204 0.831692 0
1.03643 0.495258 0
1.24725 0.60825 0
1.38935 0.706849 0
1.01146 0.382518 0
1.15302 0.46832 0
1.30106 0.549439 0
1.40204 0.831692 0
1.54267 0.886854 0
1.68723 0.92089 0
1.38935 0.706849 0
1.57052 0.759239 0
1.65569 0.774468 0
1.30106 0.549439 0
1.50633 0.605524 0
1.6935 0.637752 0
1.75862 1.29322 0
1.74357 1.15016 0
1.69256 0.813871 0
1.82854 1.14758 0
1.9976 1.08086 0
2.02648 0.858954 0
1.68723 0.92089 0
2.02025 0.907238 0
2.25143 0.786488 0
1.69256 0.813871 0
1.40471 0.414349 0
1.10213 -0.0411201 0
2.02648 0.858954 0
1.80297 0.536606 0
1.53972 0.220538 0
2.25143 0.786488 0
2.27995 0.572666 0
2.14618 0.325774 0
1.68723 0.92089 0
2.02025 0.907238 0
2.25143 0.786488 0
1.65569 0.774468 0
1.82571 0.74764 0
2.0009 0.692547 0
1.6935 0.637752 0
1.83133 0.591435 0
1.89344 0.507114 0
2.25143 0.786488 0
2.27995 0.572666 0
2.14618 0.325774 0
2.0009 0.692547 0
2.18924 0.580515 0
2.28607 0.404461 0
1.89344 0.507114 0
1.95845 0.417166 0
2.02271 0.3131 0
2.02273 0.0363983 0
1.9159 0.164761 0
1.79327 0.231142 0
1.76209 0.119297 0
1.51233 0.25318 0
1.33689 0.332896 0
1.36915 0.400557 0
1.20224 0.428368 0
0.826129 0.455643 0
1.79327 0.231142 0
1.68761 0.235465 0
1.56562 0.194479 0
1.33689 0.332896 0
1.14414 0.335337 0
1.07748 0.25108 0
0.826129 0.455643 0
0.66741 0.322736 0
0.474101 0.219678 0
1.36915 0.400557 0
1.20224 0.428368 0
0.826129 0.455643 0
0.976862 0.663722 0
0.714396 0.716401 0
0.421684 0.762042 0
0.84217 0.977676 0
0.563089 0.822736 0
0.317151 0.907323 0
0.826129 0.455643 0
0.66741 0.322736 0
0.474101 0.219678 0
0.421684 0.762042 0
0.258864 0.547744 0
0.0206024 0.341658 0
0.317151 0.907323 0
0.0991151 0.787252 0
-0.067593 0.447222 0
1.56562 0.194479 0
1.54489 0.109084 0
1.46824 0.011909 0
1.07748 0.25108 0
1.0699 0.155728 0
1.19626 -0.00244925 0
0.474101 0.219678 0
0.496297 -0.0639162 0
0.522367 -0.249117 0
1.46824 0.011909 0
1.5319 -0.0490136 0
1.60095 -0.106364 0
1.19626 -0.00244925 0
1.34253 -0.151227 0
1.51512 -0.231099 0
0.522367 -0.249117 0
0.73363 -0.311042 0
1.00177 -0.389092 0
0.474101 0.219678 0
0.496297 -0.0639162 0
0.522367 -0.249117 0
0.0206024 0.341658 0
-0.0848764 0.127584 0
-0.0454921 -0.389287 0
-0.067593 0.447222 0
-0.302232 0.209977 0
-0.406712 -0.161107 0
0.522367 -0.249117 0
0.73363 -0.311042 0
1.00177 -0.389092 0
-0.0454921 -0.389287 0
0.0640302 -0.63889 0
0.321819 -0.646729 0
-0.406712 -0.161107 0
-0.476026 -0.617518 0
-0.289476 -0.827125 0
0.84217 0.977676 0
0.563089 0.822736 0
0.317151 0.907323 0
0.714482 1.20298 0
0.574274 1.01048 0
0.302896 1.17617 0
0.795773 1.36834 0
0.59444 1.14254 0
0.411974 1.43796 0
0.317151 0.907323 0
0.0991151 0.787252 0
-0.067593 0.447222 0
0.302896 1.17617 0
0.128928 1.03918 0
-0.0789578 0.664623 0
0.411974 1.43796 0
0.237217 1.28702 0
0.0800986 0.930434 0
0.795773 1.36834 0
0.59444 1.14254 0
0.411974 1.43796 0
0.747391 1.3938 0
0.672013 1.24696 0
0.511336 1.50969 0
0.780933 1.31504 0
0.781635 1.31522 0
0.706175 1.54608 0
0.411974 1.43796 0
0.237217 1.28702 0
0.0800986 0.930434 0
0.511336 1.50969 0
0.444145 1.4447 0
0.321156 1.08911 0
0.706175 1.54608 0
0.69726 1.5959 0
0.650877 1.32426 0
-0.067593 0.447222 0
-0.302232 0.209977 0
-0.406712 -0.161107 0
-0.0789578 0.664623 0
-0.320927 0.329501 0
-0.426722 -0.250464 0
0.0800986 0.930434 0
-0.174723 0.571032 0
-0.307022 -0.00746936 0
-0.406712 -0.161107 0
-0.476026 -0.617518 0
-0.289476 -0.827125 0
-0.426722 -0.250464 0
-0.539085 -0.677176 0
-0.558304 -0.914814 0
-0.307022 -0.00746936 0
-0.401819 -0.56902 0
-0.512313 -0.860002 0
0.0800986 0.930434 0
-0.174723 0.571032 0
-0.307022 -0.00746936 0
0.321156 1.08911 0
0.110778 0.66589 0
0.0052444 0.097263 0
0.650877 1.32426 0
0.440176 0.859719 0
0.357428 0.330312 0
-0.307022 -0.00746936 0
-0.401819 -0.56902 0
-0.512313 -0.860002 0
0.0052444 0.097263 0
-0.139408 -0.393654 0
-0.338533 -0.750796 0
0.357428 0.330312 0
0.206823 -0.102373 0
-0.0525433 -0.529579 0
0 0 0
0 0 0
0 0 0
0.462205 -0.00817606 0
0.48348 -0.00867824 0
0.506022 -0.00805164 0
0.844817 -0.0498532 0
0.884259 -0.0425501 0
0.912897 -0.0340411 0
0 0 0
0 0 0
0 0 0
0.506022 -0.00805164 0
0.523878 -0.00734396 0
0.540799 -0.00587835 0
0.912897 -0.0340411 0
0.932701 -0.0258691 0
0.944983 -0.0180649 0
0.844817 -0.0498532 0
0.884259 -0.0425501 0
0.912897 -0.0340411 0
1.1668 -0.071441 0
1.19184 -0.0532549 0
1.20603 -0.0351667 0
1.38132 -0.0946026 0
1.38134 -0.0578919 0
1.38388 -0.024117 0
0.912897 -0.0340411 0
0.932701 -0.0258691 0
0.944983 -0.0180649 0