# vtk DataFile Version 3.0
#This file was generated by the deal.II library on 2025/1/4 at 9:50:20
ASCII
DATASET UNSTRUCTURED_GRID

POINTS 8640 double
1.1 1.1 0
0.9625 1.09063 0
0.825 1.08125 0
1.0875 0.9625 0
0.951563 0.954297 0
0.815625 0.946094 0
1.075 0.825 0
0.940625 0.817969 0
0.80625 0.810937 0
0.825 1.08125 0
0.6875 1.07187 0
0.55 1.0625 0
0.815625 0.946094 0
0.679688 0.937891 0
0.54375 0.929688 0
0.80625 0.810937 0
0.671875 0.803906 0
0.5375 0.796875 0
1.075 0.825 0
0.940625 0.817969 0
0.80625 0.810937 0
1.0625 0.6875 0
0.929688 0.681641 0
0.796875 0.675781 0
1.05 0.55 0
0.91875 0.545313 0
0.7875 0.540625 0
0.80625 0.810937 0
0.671875 0.803906 0
0.5375 0.796875 0
0.796875 0.675781 0
0.664062 0.669922 0
0.53125 0.664062 0
0.7875 0.540625 0
0.65625 0.535937 0
0.525 0.53125 0
0.55 1.0625 0
0.4125 1.05313 0
0.275 1.04375 0
0.54375 0.929688 0
0.407813 0.921484 0
0.271875 0.913281 0
0.5375 0.796875 0
0.403125 0.789844 0
0.26875 0.782813 0
0.275 1.04375 0
0.1375 1.03437 0
0 1.025 0
0.271875 0.913281 0
0.135938 0.905078 0
0 0.896875 0
0.26875 0.782813 0
0.134375 0.775781 0
0 0.76875 0
0.5375 0.796875 0
0.403125 0.789844 0
0.26875 0.782813 0
0.53125 0.664062 0
0.398438 0.658203 0
0.265625 0.652344 0
0.525 0.53125 0
0.39375 0.526563 0
0.2625 0.521875 0
0.26875 0.782813 0
0.134375 0.775781 0
0 0.76875 0
0.265625 0.652344 0
0.132812 0.646484 0
0 0.640625 0
0.2625 0.521875 0
0.13125 0.517187 0
0 0.5125 0
1.05 0.55 0
0.91875 0.545313 0
0.7875 0.540625 0
1.0375 0.4125 0
0.907812 0.408984 0
0.778125 0.405469 0
1.025 0.275 0
0.896875 0.272656 0
0.76875 0.270313 0
0.7875 0.540625 0
0.65625 0.535937 0
0.525 0.53125 0
0.778125 0.405469 0
0.648438 0.401953 0
0.51875 0.398438 0
0.76875 0.270313 0
0.640625 0.267969 0
0.5125 0.265625 0
1.025 0.275 0
0.896875 0.272656 0
0.76875 0.270313 0
1.0125 0.1375 0
0.885937 0.136328 0
0.759375 0.135156 0
1 0 0
0.875 0 0
0.75 0 0
0.76875 0.270313 0
0.640625 0.267969 0
0.5125 0.265625 0
0.759375 0.135156 0
0.632812 0.133984 0
0.50625 0.132812 0
0.75 0 0
0.625 0 0
0.5 0 0
0.525 0.53125 0
0.39375 0.526563 0
0.2625 0.521875 0
0.51875 0.398438 0
0.389062 0.394922 0
0.259375 0.391406 0
0.5125 0.265625 0
0.384375 0.263281 0
0.25625 0.260937 0
0.2625 0.521875 0
0.13125 0.517187 0
0 0.5125 0
0.259375 0.391406 0
0.129688 0.387891 0
0 0.384375 0
0.25625 0.260937 0
0.128125 0.258594 0
0 0.25625 0
0.5125 0.265625 0
0.384375 0.263281 0
0.25625 0.260937 0
0.50625 0.132812 0
0.379687 0.131641 0
0.253125 0.130469 0
0.5 0 0
0.375 0 0
0.25 0 0
0.25625 0.260937 0
0.128125 0.258594 0
0 0.25625 0
0.253125 0.130469 0
0.126562 0.129297 0
0 0.128125 0
0.25 0 0
0.125 0 0
0 0 0
2 1 0
1.8875 1.0125 0
1.775 1.025 0
2 0.875 0
1.88594 0.885938 0
1.77188 0.896875 0
2 0.75 0
1.88437 0.759375 0
1.76875 0.76875 0
1.775 1.025 0
1.6625 1.0375 0
1.55 1.05 0
1.77188 0.896875 0
1.65781 0.907813 0
1.54375 0.91875 0
1.76875 0.76875 0
1.65313 0.778125 0
1.5375 0.7875 0
2 0.75 0
1.88437 0.759375 0
1.76875 0.76875 0
2 0.625 0
1.88281 0.632812 0
1.76562 0.640625 0
2 0.5 0
1.88125 0.50625 0
1.7625 0.5125 0
1.76875 0.76875 0
1.65313 0.778125 0
1.5375 0.7875 0
1.76562 0.640625 0
1.64844 0.648438 0
1.53125 0.65625 0
1.7625 0.5125 0
1.64375 0.51875 0
1.525 0.525 0
1.55 1.05 0
1.4375 1.0625 0
1.325 1.075 0
1.54375 0.91875 0
1.42969 0.929688 0
1.31563 0.940625 0
1.5375 0.7875 0
1.42188 0.796875 0
1.30625 0.80625 0
1.325 1.075 0
1.2125 1.0875 0
1.1 1.1 0
1.31563 0.940625 0
1.20156 0.951563 0
1.0875 0.9625 0
1.30625 0.80625 0
1.19063 0.815625 0
1.075 0.825 0
1.5375 0.7875 0
1.42188 0.796875 0
1.30625 0.80625 0
1.53125 0.65625 0
1.41406 0.664062 0
1.29688 0.671875 0
1.525 0.525 0
1.40625 0.53125 0
1.2875 0.5375 0
1.30625 0.80625 0
1.19063 0.815625 0
1.075 0.825 0
1.29688 0.671875 0
1.17969 0.679688 0
1.0625 0.6875 0
1.2875 0.5375 0
1.16875 0.54375 0
1.05 0.55 0
2 0.5 0
1.88125 0.50625 0
1.7625 0.5125 0
2 0.375 0
1.87969 0.379687 0
1.75938 0.384375 0
2 0.25 0
1.87813 0.253125 0
1.75625 0.25625 0
1.7625 0.5125 0
1.64375 0.51875 0
1.525 0.525 0
1.75938 0.384375 0
1.63906 0.389063 0
1.51875 0.39375 0
1.75625 0.25625 0
1.63438 0.259375 0
1.5125 0.2625 0
2 0.25 0
1.87813 0.253125 0
1.75625 0.25625 0
2 0.125 0
1.87656 0.126562 0
1.75313 0.128125 0
2 0 0
1.875 0 0
1.75 0 0
1.75625 0.25625 0
1.63438 0.259375 0
1.5125 0.2625 0
1.75313 0.128125 0
1.62969 0.129688 0
1.50625 0.13125 0
1.75 0 0
1.625 0 0
1.5 0 0
1.525 0.525 0
1.40625 0.53125 0
1.2875 0.5375 0
1.51875 0.39375 0
1.39844 0.398438 0
1.27813 0.403125 0
1.5125 0.2625 0
1.39062 0.265625 0
1.26875 0.26875 0
1.2875 0.5375 0
1.16875 0.54375 0
1.05 0.55 0
1.27813 0.403125 0
1.15781 0.407813 0
1.0375 0.4125 0
1.26875 0.26875 0
1.14688 0.271875 0
1.025 0.275 0
1.5125 0.2625 0
1.39062 0.265625 0
1.26875 0.26875 0
1.50625 0.13125 0
1.38281 0.132812 0
1.25937 0.134375 0
1.5 0 0
1.375 0 0
1.25 0 0
1.26875 0.26875 0
1.14688 0.271875 0
1.025 0.275 0
1.25937 0.134375 0
1.13594 0.135938 0
1.0125 0.1375 0
1.25 0 0
1.125 0 0
1 0 0
1 2 0
0.875 2.00625 0
0.75 2.0125 0
1.0125 1.8875 0
0.885938 1.8918 0
0.759375 1.89609 0
1.025 1.775 0
0.896875 1.77734 0
0.76875 1.77969 0
0.75 2.0125 0
0.625 2.01875 0
0.5 2.025 0
0.759375 1.89609 0
0.632812 1.90039 0
0.50625 1.90469 0
0.76875 1.77969 0
0.640625 1.78203 0
0.5125 1.78437 0
1.025 1.775 0
0.896875 1.77734 0
0.76875 1.77969 0
1.0375 1.6625 0
0.907813 1.66289 0
0.778125 1.66328 0
1.05 1.55 0
0.91875 1.54844 0
0.7875 1.54688 0
0.76875 1.77969 0
0.640625 1.78203 0
0.5125 1.78437 0
0.778125 1.66328 0
0.648438 1.66367 0
0.51875 1.66406 0
0.7875 1.54688 0
0.65625 1.54531 0
0.525 1.54375 0
0.5 2.025 0
0.375 2.03125 0
0.25 2.0375 0
0.50625 1.90469 0
0.379687 1.90898 0
0.253125 1.91328 0
0.5125 1.78437 0
0.384375 1.78672 0
0.25625 1.78906 0
0.25 2.0375 0
0.125 2.04375 0
0 2.05 0
0.253125 1.91328 0
0.126562 1.91758 0
0 1.92187 0
0.25625 1.78906 0
0.128125 1.79141 0
0 1.79375 0
0.5125 1.78437 0
0.384375 1.78672 0
0.25625 1.78906 0
0.51875 1.66406 0
0.389062 1.66445 0
0.259375 1.66484 0
0.525 1.54375 0
0.39375 1.54219 0
0.2625 1.54062 0
0.25625 1.78906 0
0.128125 1.79141 0
0 1.79375 0
0.259375 1.66484 0
0.129688 1.66523 0
0 1.66562 0
0.2625 1.54062 0
0.13125 1.53906 0
0 1.5375 0
1.05 1.55 0
0.91875 1.54844 0
0.7875 1.54688 0
1.0625 1.4375 0
0.929688 1.43398 0
0.796875 1.43047 0
1.075 1.325 0
0.940625 1.31953 0
0.80625 1.31406 0
0.7875 1.54688 0
0.65625 1.54531 0
0.525 1.54375 0
0.796875 1.43047 0
0.664062 1.42695 0
0.53125 1.42344 0
0.80625 1.31406 0
0.671875 1.30859 0
0.5375 1.30312 0
1.075 1.325 0
0.940625 1.31953 0
0.80625 1.31406 0
1.0875 1.2125 0
0.951563 1.20508 0
0.815625 1.19766 0
1.1 1.1 0
0.9625 1.09063 0
0.825 1.08125 0
0.80625 1.31406 0
0.671875 1.30859 0
0.5375 1.30312 0
0.815625 1.19766 0
0.679688 1.19023 0
0.54375 1.18281 0
0.825 1.08125 0
0.6875 1.07187 0
0.55 1.0625 0
0.525 1.54375 0
0.39375 1.54219 0
0.2625 1.54062 0
0.53125 1.42344 0
0.398438 1.41992 0
0.265625 1.41641 0
0.5375 1.30312 0
0.403125 1.29766 0
0.26875 1.29219 0
0.2625 1.54062 0
0.13125 1.53906 0
0 1.5375 0
0.265625 1.41641 0
0.132812 1.41289 0
0 1.40937 0
0.26875 1.29219 0
0.134375 1.28672 0
0 1.28125 0
0.5375 1.30312 0
0.403125 1.29766 0
0.26875 1.29219 0
0.54375 1.18281 0
0.407813 1.17539 0
0.271875 1.16797 0
0.55 1.0625 0
0.4125 1.05313 0
0.275 1.04375 0
0.26875 1.29219 0
0.134375 1.28672 0
0 1.28125 0
0.271875 1.16797 0
0.135938 1.16055 0
0 1.15312 0
0.275 1.04375 0
0.1375 1.03437 0
0 1.025 0
2.9 1.1 0
2.7875 1.0875 0
2.675 1.075 0
2.9125 0.9625 0
2.79844 0.951563 0
2.68438 0.940625 0
2.925 0.825 0
2.80938 0.815625 0
2.69375 0.80625 0
2.675 1.075 0
2.5625 1.0625 0
2.45 1.05 0
2.68438 0.940625 0
2.57031 0.929688 0
2.45625 0.91875 0
2.69375 0.80625 0
2.57812 0.796875 0
2.4625 0.7875 0
2.925 0.825 0
2.80938 0.815625 0
2.69375 0.80625 0
2.9375 0.6875 0
2.82031 0.679688 0
2.70312 0.671875 0
2.95 0.55 0
2.83125 0.54375 0
2.7125 0.5375 0
2.69375 0.80625 0
2.57812 0.796875 0
2.4625 0.7875 0
2.70312 0.671875 0
2.58594 0.664062 0
2.46875 0.65625 0
2.7125 0.5375 0
2.59375 0.53125 0
2.475 0.525 0
2.45 1.05 0
2.3375 1.0375 0
2.225 1.025 0
2.45625 0.91875 0
2.34219 0.907813 0
2.22813 0.896875 0
2.4625 0.7875 0
2.34688 0.778125 0
2.23125 0.76875 0
2.225 1.025 0
2.1125 1.0125 0
2 1 0
2.22813 0.896875 0
2.11406 0.885938 0
2 0.875 0
2.23125 0.76875 0
2.11563 0.759375 0
2 0.75 0
2.4625 0.7875 0
2.34688 0.778125 0
2.23125 0.76875 0
2.46875 0.65625 0
2.35156 0.648438 0
2.23438 0.640625 0
2.475 0.525 0
2.35625 0.51875 0
2.2375 0.5125 0
2.23125 0.76875 0
2.11563 0.759375 0
2 0.75 0
2.23438 0.640625 0
2.11719 0.632812 0
2 0.625 0
2.2375 0.5125 0
2.11875 0.50625 0
2 0.5 0
2.95 0.55 0
2.83125 0.54375 0
2.7125 0.5375 0
2.9625 0.4125 0
2.84219 0.407813 0
2.72188 0.403125 0
2.975 0.275 0
2.85313 0.271875 0
2.73125 0.26875 0
2.7125 0.5375 0
2.59375 0.53125 0
2.475 0.525 0
2.72188 0.403125 0
2.60156 0.398438 0
2.48125 0.39375 0
2.73125 0.26875 0
2.60938 0.265625 0
2.4875 0.2625 0
2.975 0.275 0
2.85313 0.271875 0
2.73125 0.26875 0
2.9875 0.1375 0
2.86406 0.135938 0
2.74063 0.134375 0
3 0 0
2.875 0 0
2.75 0 0
2.73125 0.26875 0
2.60938 0.265625 0
2.4875 0.2625 0
2.74063 0.134375 0
2.61719 0.132812 0
2.49375 0.13125 0
2.75 0 0
2.625 0 0
2.5 0 0
2.475 0.525 0
2.35625 0.51875 0
2.2375 0.5125 0
2.48125 0.39375 0
2.36094 0.389063 0
2.24062 0.384375 0
2.4875 0.2625 0
2.36562 0.259375 0
2.24375 0.25625 0
2.2375 0.5125 0
2.11875 0.50625 0
2 0.5 0
2.24062 0.384375 0
2.12031 0.379687 0
2 0.375 0
2.24375 0.25625 0
2.12188 0.253125 0
2 0.25 0
2.4875 0.2625 0
2.36562 0.259375 0
2.24375 0.25625 0
2.49375 0.13125 0
2.37031 0.129688 0
2.24688 0.128125 0
2.5 0 0
2.375 0 0
2.25 0 0
2.24375 0.25625 0
2.12188 0.253125 0
2 0.25 0
2.24688 0.128125 0
2.12344 0.126562 0
2 0.125 0
2.25 0 0
2.125 0 0
2 0 0
4 1 0
3.8625 1.0125 0
3.725 1.025 0
4 0.875 0
3.86406 0.885938 0
3.72813 0.896875 0
4 0.75 0
3.86563 0.759375 0
3.73125 0.76875 0
3.725 1.025 0
3.5875 1.0375 0
3.45 1.05 0
3.72813 0.896875 0
3.59219 0.907813 0
3.45625 0.91875 0
3.73125 0.76875 0
3.59688 0.778125 0
3.4625 0.7875 0
4 0.75 0
3.86563 0.759375 0
3.73125 0.76875 0
4 0.625 0
3.86719 0.632812 0
[...]
POINT_DATA 8640
VECTORS v double
1.25489 -0.324278 0
1.22548 -0.270388 0
1.20163 -0.217292 0
1.18244 -0.288457 0
1.14527 -0.241992 0
1.11863 -0.200147 0
1.09369 -0.251338 0
1.05694 -0.213039 0
1.02195 -0.176122 0
1.20163 -0.217292 0
1.18343 -0.175144 0
1.16777 -0.132953 0
1.11863 -0.200147 0
1.09234 -0.16039 0
1.07505 -0.12502 0
1.02195 -0.176122 0
0.993937 -0.142083 0
0.96985 -0.110502 0
1.09369 -0.251338 0
1.05694 -0.213039 0
1.02195 -0.176122 0
0.985053 -0.200135 0
0.942722 -0.170851 0
0.905264 -0.143175 0
0.852683 -0.156931 0
0.810733 -0.135372 0
0.773283 -0.114365 0
1.02195 -0.176122 0
0.993937 -0.142083 0
0.96985 -0.110502 0
0.905264 -0.143175 0
0.874014 -0.116755 0
0.847967 -0.091464 0
0.773283 -0.114365 0
0.741368 -0.0936528 0
0.714964 -0.073744 0
1.16777 -0.132953 0
1.15494 -0.0985312 0
1.14309 -0.0626469 0
1.07505 -0.12502 0
1.05654 -0.091683 0
1.04551 -0.0601175 0
0.96985 -0.110502 0
0.950319 -0.0807628 0
0.93583 -0.0527407 0
1.14309 -0.0626469 0
1.13378 -0.0318038 0
1.125 0 0
1.04551 -0.0601175 0
1.03251 -0.0295012 0
1.02539 0 0
0.93583 -0.0527407 0
0.922276 -0.0257703 0
0.914062 0 0
0.96985 -0.110502 0
0.950319 -0.0807628 0
0.93583 -0.0527407 0
0.847967 -0.091464 0
0.827114 -0.0669744 0
0.811755 -0.0441094 0
0.714964 -0.073744 0
0.69314 -0.0544012 0
0.6772 -0.0361459 0
0.93583 -0.0527407 0
0.922276 -0.0257703 0
0.914062 0 0
0.811755 -0.0441094 0
0.798848 -0.0219744 0
0.791016 0 0
0.6772 -0.0361459 0
0.663888 -0.0181273 0
0.65625 0 0
0.852683 -0.156931 0
0.810733 -0.135372 0
0.773283 -0.114365 0
0.706703 -0.108056 0
0.66396 -0.0931684 0
0.625791 -0.0785559 0
0.537069 -0.0645838 0
0.496496 -0.0561234 0
0.460398 -0.0479207 0
0.773283 -0.114365 0
0.741368 -0.0936528 0
0.714964 -0.073744 0
0.625791 -0.0785559 0
0.59311 -0.0642648 0
0.566189 -0.0505672 0
0.460398 -0.0479207 0
0.429288 -0.0397999 0
0.403886 -0.0320394 0
0.537069 -0.0645838 0
0.496496 -0.0561234 0
0.460398 -0.0479207 0
0.326695 -0.0201385 0
0.293564 -0.0171047 0
0.265633 -0.0144137 0
0 0 0
0 0 0
0 0 0
0.460398 -0.0479207 0
0.429288 -0.0397999 0
0.403886 -0.0320394 0
0.265633 -0.0144137 0
0.240554 -0.0116657 0
0.22116 -0.00922561 0
0 0 0
0 0 0
0 0 0
0.714964 -0.073744 0
0.69314 -0.0544012 0
0.6772 -0.0361459 0
0.566189 -0.0505672 0
0.544109 -0.0371497 0
0.528314 -0.0243279 0
0.403886 -0.0320394 0
0.382997 -0.0242505 0
0.368389 -0.0167911 0
0.6772 -0.0361459 0
0.663888 -0.0181273 0
0.65625 0 0
0.528314 -0.0243279 0
0.516015 -0.0117243 0
0.509766 0 0
0.368389 -0.0167911 0
0.35708 -0.00899931 0
0.351562 0 0
0.403886 -0.0320394 0
0.382997 -0.0242505 0
0.368389 -0.0167911 0
0.22116 -0.00922561 0
0.20453 -0.00661236 0
0.193754 -0.00429423 0
0 0 0
0 0 0
0 0 0
0.368389 -0.0167911 0
0.35708 -0.00899931 0
0.351562 0 0
0.193754 -0.00429423 0
0.185093 -0.00192222 0
0.181641 0 0
0 0 0
0 0 0
0 0 0
1.76276 -0.491636 0
1.65895 -0.520435 0
1.59524 -0.528388 0
1.62485 -0.402027 0
1.55116 -0.422628 0
1.47893 -0.431485 0
1.49623 -0.323213 0
1.43836 -0.346927 0
1.37549 -0.359537 0
1.59524 -0.528388 0
1.49852 -0.513291 0
1.43631 -0.488409 0
1.47893 -0.431485 0
1.40778 -0.427227 0
1.34295 -0.412973 0
1.37549 -0.359537 0
1.31918 -0.360511 0
1.2589 -0.350703 0
1.49623 -0.323213 0
1.43836 -0.346927 0
1.37549 -0.359537 0
1.38975 -0.252475 0
1.33427 -0.267111 0
1.27464 -0.275055 0
1.23614 -0.178886 0
1.18297 -0.192064 0
1.12535 -0.200554 0
1.37549 -0.359537 0
1.31918 -0.360511 0
1.2589 -0.350703 0
1.27464 -0.275055 0
1.21674 -0.274864 0
1.15772 -0.26827 0
1.12535 -0.200554 0
1.07245 -0.203847 0
1.01784 -0.202081 0
1.43631 -0.488409 0
1.36471 -0.452139 0
1.32388 -0.410575 0
1.34295 -0.412973 0
1.2896 -0.38802 0
1.24486 -0.358257 0
1.2589 -0.350703 0
1.2121 -0.332533 0
1.16455 -0.308056 0
1.32388 -0.410575 0
1.27944 -0.368002 0
1.25489 -0.324278 0
1.24486 -0.358257 0
1.20876 -0.323508 0
1.18244 -0.288457 0
1.16455 -0.308056 0
1.12876 -0.280701 0
1.09369 -0.251338 0
1.2589 -0.350703 0
1.2121 -0.332533 0
1.16455 -0.308056 0
1.15772 -0.26827 0
1.10789 -0.256026 0
1.05996 -0.240027 0
1.01784 -0.202081 0
0.971788 -0.195697 0
0.926626 -0.185698 0
1.16455 -0.308056 0
1.12876 -0.280701 0
1.09369 -0.251338 0
1.05996 -0.240027 0
1.02069 -0.22127 0
0.985053 -0.200135 0
0.926626 -0.185698 0
0.888421 -0.172549 0
0.852683 -0.156931 0
1.23614 -0.178886 0
1.18297 -0.192064 0
1.12535 -0.200554 0
1.08497 -0.126619 0
1.0358 -0.136029 0
0.982177 -0.141961 0
0.910489 -0.0682727 0
0.862669 -0.0749296 0
0.810101 -0.0794614 0
1.12535 -0.200554 0
1.07245 -0.203847 0
1.01784 -0.202081 0
0.982177 -0.141961 0
0.931387 -0.143537 0
0.878235 -0.141397 0
0.810101 -0.0794614 0
0.760073 -0.0813404 0
0.707828 -0.0809586 0
0.910489 -0.0682727 0
0.862669 -0.0749296 0
0.810101 -0.0794614 0
0.620222 -0.0216731 0
0.587541 -0.0242505 0
0.547191 -0.0259579 0
0 0 0
0 0 0
0 0 0
0.810101 -0.0794614 0
0.760073 -0.0813404 0
0.707828 -0.0809586 0
0.547191 -0.0259579 0
0.509423 -0.0267935 0
0.467362 -0.0264875 0
0 0 0
0 0 0
0 0 0
1.01784 -0.202081 0
0.971788 -0.195697 0
0.926626 -0.185698 0
0.878235 -0.141397 0
0.831391 -0.135992 0
0.784936 -0.128278 0
0.707828 -0.0809586 0
0.661278 -0.0787143 0
0.615201 -0.0751295 0
0.926626 -0.185698 0
0.888421 -0.172549 0
0.852683 -0.156931 0
0.784936 -0.128278 0
0.744468 -0.11898 0
0.706703 -0.108056 0
0.615201 -0.0751295 0
0.574873 -0.0704845 0
0.537069 -0.0645838 0
0.707828 -0.0809586 0
0.661278 -0.0787143 0
0.615201 -0.0751295 0
0.467362 -0.0264875 0
0.429865 -0.0256654 0
0.391976 -0.0241255 0
0 0 0
0 0 0
0 0 0
0.615201 -0.0751295 0
0.574873 -0.0704845 0
0.537069 -0.0645838 0
0.391976 -0.0241255 0
0.358045 -0.0224442 0
0.326695 -0.0201385 0
0 0 0
0 0 0
0 0 0
1.24128 -0.0658587 0
1.31513 -0.0553132 0
1.37361 -0.0451757 0
1.25751 -0.147221 0
1.3225 -0.116822 0
1.37729 -0.0910753 0
1.25778 -0.207165 0
1.31485 -0.163686 0
1.36578 -0.12801 0
1.37361 -0.0451757 0
1.41625 -0.0370837 0
1.44805 -0.0289285 0
1.37729 -0.0910753 0
1.41551 -0.0719597 0
1.44613 -0.0550942 0
1.36578 -0.12801 0
1.40002 -0.100575 0
1.42965 -0.0765383 0
1.25778 -0.207165 0
1.31485 -0.163686 0
1.36578 -0.12801 0
1.27533 -0.278924 0
1.32008 -0.219117 0
1.3602 -0.170461 0
1.29404 -0.308845 0
1.32076 -0.244852 0
1.3457 -0.191525 0
1.36578 -0.12801 0
1.40002 -0.100575 0
1.42965 -0.0765383 0
1.3602 -0.170461 0
1.38699 -0.133646 0
1.41098 -0.101358 0
1.3457 -0.191525 0
1.36361 -0.150786 0
1.38077 -0.113878 0
1.44805 -0.0289285 0
1.47171 -0.0216293 0
1.48667 -0.013949 0
1.44613 -0.0550942 0
1.46748 -0.040721 0
1.48235 -0.0264121 0
1.42965 -0.0765383 0
1.44939 -0.0556735 0
1.46513 -0.0358587 0
1.48667 -0.013949 0
1.49729 -0.00689515 0
1.5 0 0
1.48235 -0.0264121 0
1.49114 -0.0128426 0
1.49414 0 0
1.46513 -0.0358587 0
1.47294 -0.0175288 0
1.47656 0 0
1.42965 -0.0765383 0
1.44939 -0.0556735 0
1.46513 -0.0358587 0
1.41098 -0.101358 0
1.42632 -0.0740908 0
1.43934 -0.0481791 0
1.38077 -0.113878 0
1.39139 -0.0827696 0
1.40128 -0.0532003 0
1.46513 -0.0358587 0
1.47294 -0.0175288 0
1.47656 0 0
1.43934 -0.0481791 0
1.4445 -0.0241377 0
1.44727 0 0
1.40128 -0.0532003 0
1.40431 -0.0265939 0
1.40625 0 0
1.29404 -0.308845 0
1.32076 -0.244852 0
1.3457 -0.191525 0
1.29293 -0.339784 0
1.3098 -0.27424 0
1.32051 -0.216367 0
1.29626 -0.344839 0
1.29709 -0.280454 0
1.29272 -0.222456 0
1.3457 -0.191525 0
1.36361 -0.150786 0
1.38077 -0.113878 0
1.32051 -0.216367 0
1.33288 -0.172498 0
1.34138 -0.130205 0
1.29272 -0.222456 0
1.29503 -0.177019 0
1.29448 -0.133354 0
1.29626 -0.344839 0
1.29709 -0.280454 0
1.29272 -0.222456 0
1.27338 -0.339139 0
1.26608 -0.283548 0
1.24688 -0.225448 0
1.25489 -0.324278 0
1.22548 -0.270388 0
1.20163 -0.217292 0
1.29272 -0.222456 0
1.29503 -0.177019 0
1.29448 -0.133354 0
1.24688 -0.225448 0
1.24369 -0.182498 0
1.23309 -0.137616 0
1.20163 -0.217292 0
1.18343 -0.175144 0
1.16777 -0.132953 0
1.38077 -0.113878 0
1.39139 -0.0827696 0
1.40128 -0.0532003 0
1.34138 -0.130205 0
1.3481 -0.0955035 0
1.35216 -0.0618981 0
1.29448 -0.133354 0
1.2946 -0.0978107 0
1.29284 -0.0625954 0
1.40128 -0.0532003 0
1.40431 -0.0265939 0
1.40625 0 0
1.35216 -0.0618981 0
1.35388 -0.0321696 0
1.35352 0 0
1.29284 -0.0625954 0
1.29155 -0.0316997 0
1.28906 0 0
1.29448 -0.133354 0
1.2946 -0.0978107 0
1.29284 -0.0625954 0
1.23309 -0.137616 0
1.22998 -0.103075 0
1.22187 -0.0656539 0
1.16777 -0.132953 0
1.15494 -0.0985312 0
1.14309 -0.0626469 0
1.29284 -0.0625954 0
1.29155 -0.0316997 0
1.28906 0 0
1.22187 -0.0656539 0
1.21895 -0.0339314 0
1.21289 0 0
1.14309 -0.0626469 0
1.13378 -0.0318038 0
1.125 0 0
2.17185 0.00237466 0
2.14569 -0.0931328 0
2.1579 -0.175027 0
2.09251 0.0220745 0
2.07222 -0.0525439 0
2.03381 -0.122791 0
1.90114 0.0462009 0
1.8787 -0.0169657 0
1.85811 -0.0768335 0
2.1579 -0.175027 0
2.08926 -0.249199 0
2.0737 -0.310433 0
2.03381 -0.122791 0
1.99402 -0.186236 0
1.93961 -0.24878 0
1.85811 -0.0768335 0
1.81278 -0.133701 0
1.76685 -0.187247 0
1.90114 0.0462009 0
1.8787 -0.0169657 0
1.85811 -0.0768335 0
1.73547 0.0273373 0
1.72369 -0.0196821 0
1.70246 -0.0662939 0
1.58696 0.0375151 0
1.57095 0.000800381 0
1.55012 -0.0347815 0
1.85811 -0.0768335 0
1.81278 -0.133701 0
1.76685 -0.187247 0
1.70246 -0.0662939 0
1.67054 -0.109889 0
1.62968 -0.150158 0
1.55012 -0.0347815 0
1.51584 -0.0680796 0
1.47486 -0.0989033 0
2.0737 -0.310433 0
1.99479 -0.374046 0
1.96238 -0.427035 0
1.93961 -0.24878 0
1.87282 -0.303534 0
1.79029 -0.346495 0
1.76685 -0.187247 0
1.70668 -0.234118 0
1.64775 -0.274563 0
1.96238 -0.427035 0
1.83066 -0.455198 0
1.76276 -0.491636 0
1.79029 -0.346495 0
1.71066 -0.380172 0
1.62485 -0.402027 0
1.64775 -0.274563 0
1.57404 -0.301603 0
1.49623 -0.323213 0
1.76685 -0.187247 0
1.70668 -0.234118 0
1.64775 -0.274563 0
1.62968 -0.150158 0
1.58039 -0.184376 0
1.5222 -0.213979 0
1.47486 -0.0989033 0
1.42462 -0.125819 0
1.36816 -0.149567 0
1.64775 -0.274563 0
1.57404 -0.301603 0
1.49623 -0.323213 0
1.5222 -0.213979 0
1.45881 -0.236743 0
1.38975 -0.252475 0
1.36816 -0.149567 0
1.30621 -0.166808 0
1.23614 -0.178886 0
1.58696 0.0375151 0
1.57095 0.000800381 0
1.55012 -0.0347815 0
1.39758 0.0376894 0
1.38492 0.0112197 0
1.36576 -0.0153252 0
1.16875 0.0411447 0
1.16276 0.0240734 0
1.15167 0.00699475 0
1.55012 -0.0347815 0
1.51584 -0.0680796 0
1.47486 -0.0989033 0
1.36576 -0.0153252 0
1.33588 -0.0408315 0
1.29913 -0.0647714 0
1.15167 0.00699475 0
1.12839 -0.00988934 0
1.09873 -0.0257591 0
1.16875 0.0411447 0
1.16276 0.0240734 0
1.15167 0.00699475 0
0.749754 0.0169463 0
0.762279 0.0113454 0
0.768129 0.00553295 0
0 0 0
0 0 0
0 0 0
1.15167 0.00699475 0
1.12839 -0.00988934 0
1.09873 -0.0257591 0
0.768129 0.00553295 0
0.763554 -7.83417e-05 0
0.750317 -0.00561727 0
0 0 0
0 0 0
0 0 0
1.47486 -0.0989033 0
1.42462 -0.125819 0
1.36816 -0.149567 0
1.29913 -0.0647714 0
1.25431 -0.0855398 0
1.20246 -0.103253 0
1.09873 -0.0257591 0
1.06001 -0.0398235 0
1.01515 -0.0521661 0
1.36816 -0.149567 0
1.30621 -0.166808 0
1.23614 -0.178886 0
1.20246 -0.103253 0
1.14647 -0.116509 0
1.08497 -0.126619 0
1.01515 -0.0521661 0
0.965743 -0.061545 0
0.910489 -0.0682727 0
1.09873 -0.0257591 0
1.06001 -0.0398235 0
1.01515 -0.0521661 0
0.750317 -0.00561727 0
0.729215 -0.0103095 0
0.698431 -0.0150311 0
0 0 0
0 0 0
0 0 0
1.01515 -0.0521661 0
0.965743 -0.061545 0
0.910489 -0.0682727 0
0.698431 -0.0150311 0
0.663908 -0.0187066 0
0.620222 -0.0216731 0
0 0 0
0 0 0
0 0 0
1.67286 0.2977 0
1.75479 0.337791 0
1.82968 0.354024 0
1.58997 0.257193 0
1.65464 0.287372 0
1.73187 0.307255 0
1.48867 0.216887 0
1.53088 0.235699 0
1.57426 0.243618 0
1.82968 0.354024 0
1.90914 0.349023 0
1.98107 0.315133 0
1.73187 0.307255 0
1.81758 0.313064 0
1.90547 0.29651 0
1.57426 0.243618 0
1.6285 0.244175 0
1.68909 0.23086 0
1.48867 0.216887 0
1.53088 0.235699 0
1.57426 0.243618 0
1.42489 0.189677 0
1.47121 0.201522 0
1.51987 0.204706 0
1.29302 0.152828 0
1.33776 0.162549 0
1.38371 0.165827 0
1.57426 0.243618 0
1.6285 0.244175 0
1.68909 0.23086 0
1.51987 0.204706 0
1.56757 0.199809 0
1.61497 0.184047 0
1.38371 0.165827 0
1.42943 0.164223 0
1.47543 0.154376 0
1.98107 0.315133 0
2.04385 0.257656 0
2.10319 0.180354 0
1.90547 0.29651 0
1.97692 0.257235 0
2.03996 0.195301 0
1.68909 0.23086 0
1.754 0.204666 0
1.81917 0.163717 0
2.10319 0.180354 0
2.14131 0.093412 0
2.17185 0.00237466 0
2.03996 0.195301 0
2.07087 0.115272 0
2.09251 0.0220745 0
1.81917 0.163717 0
1.86652 0.109529 0
1.90114 0.0462009 0
1.68909 0.23086 0
1.754 0.204666 0
1.81917 0.163717 0
1.61497 0.184047 0
1.65519 0.158198 0
1.69298 0.121865 0
1.47543 0.154376 0
1.51507 0.136669 0
1.55109 0.110379 0
1.81917 0.163717 0
1.86652 0.109529 0
1.90114 0.0462009 0
1.69298 0.121865 0
1.71682 0.0773127 0
1.73547 0.0273373 0
1.55109 0.110379 0
1.57273 0.076478 0
1.58696 0.0375151 0
1.29302 0.152828 0
1.33776 0.162549 0
1.38371 0.165827 0
1.09547 0.117217 0
1.14696 0.123596 0
1.19989 0.125546 0
0.785142 0.0688385 0
0.84623 0.0756738 0
0.911968 0.0798192 0
1.38371 0.165827 0
1.42943 0.164223 0
1.47543 0.154376 0
1.19989 0.125546 0
1.24683 0.123627 0
1.29294 0.116273 0
0.911968 0.0798192 0
0.970642 0.0822871 0
1.02993 0.0814824 0
0.785142 0.0688385 0
0.84623 0.0756738 0
0.911968 0.0798192 0
0.370443 0.0226362 0
0.414585 0.0251615 0
0.467774 0.0266122 0
0 0 0
0 0 0
0 0 0
0.911968 0.0798192 0
0.970642 0.0822871 0
1.02993 0.0814824 0
0.467774 0.0266122 0
0.517266 0.0272908 0
0.572034 0.0274823 0
0 0 0
0 0 0
0 0 0
1.47543 0.154376 0
1.51507 0.136669 0
1.55109 0.110379 0
1.29294 0.116273 0
1.32943 0.103729 0
1.36279 0.0861156 0
1.02993 0.0814824 0
1.07743 0.0770017 0
1.12098 0.068766 0
1.55109 0.110379 0
1.57273 0.076478 0
1.58696 0.0375151 0
1.36279 0.0861156 0
1.38286 0.0636809 0
1.39758 0.0376894 0
1.12098 0.068766 0
1.14837 0.0563864 0
1.16875 0.0411447 0
1.02993 0.0814824 0
1.07743 0.0770017 0
1.12098 0.068766 0
0.572034 0.0274823 0
0.621068 0.0266249 0
0.671383 0.0246116 0
0 0 0
0 0 0
0 0 0
1.12098 0.068766 0
1.14837 0.0563864 0
1.16875 0.0411447 0
0.671383 0.0246116 0
0.712187 0.0209502 0
0.749754 0.0169463 0
0 0 0
0 0 0
0 0 0
-0.757551 0.462991 0
-0.890466 0.610054 0
-1.00158 0.701755 0
-0.828803 0.606472 0
-0.936369 0.709993 0
-0.975058 0.769846 0
-0.655969 0.615339 0
-0.672425 0.71192 0
-0.562315 0.73288 0
-1.00158 0.701755 0
-1.06364 0.743461 0
-1.06261 0.708978 0
-0.975058 0.769846 0
-0.941587 0.739473 0
-0.898564 0.656466 0
-0.562315 0.73288 0
-0.524141 0.659635 0
-0.476615 0.584713 0
-0.655969 0.615339 0
-0.672425 0.71192 0
-0.562315 0.73288 0
-0.0499316 0.624682 0
-0.0527828 0.666412 0
0.0153898 0.662994 0
0.542596 0.48301 0
0.530493 0.588544 0
0.584334 0.625068 0
-0.562315 0.73288 0
-0.524141 0.659635 0
-0.476615 0.584713 0
0.0153898 0.662994 0
-0.0284654 0.616904 0
0.0341345 0.521271 0
0.584334 0.625068 0
0.541315 0.592535 0
0.555923 0.508192 0
-1.06261 0.708978 0
-1.0054 0.622887 0
-0.934453 0.503387 0
-0.898564 0.656466 0
-0.811025 0.547271 0
-0.725156 0.390138 0
-0.476615 0.584713 0
-0.387406 0.44988 0
-0.347825 0.291997 0
-0.934453 0.503387 0
-0.825559 0.357431 0
-0.713219 0.209081 0
-0.725156 0.390138 0
-0.616266 0.223387 0
-0.531193 0.0718467 0
-0.347825 0.291997 0
-0.268455 0.148347 0
-0.231676 0.011517 0
-0.476615 0.584713 0
-0.387406 0.44988 0
-0.347825 0.291997 0
0.0341345 0.521271 0
0.0254023 0.379644 0
0.0387904 0.231881 0
0.555923 0.508192 0
0.484548 0.383164 0
0.470559 0.226707 0
-0.347825 0.291997 0
-0.268455 0.148347 0
-0.231676 0.011517 0
0.0387904 0.231881 0
0.0800187 0.0812072 0
0.051188 -0.0452547 0
0.470559 0.226707 0
0.4146 0.0706123 0
0.352295 -0.0633306 0
0.542596 0.48301 0
0.530493 0.588544 0
0.584334 0.625068 0
1.05558 0.491592 0
1.09748 0.562268 0
1.1337 0.592042 0
1.38278 0.404346 0
1.455 0.490108 0
1.53395 0.534883 0
0.584334 0.625068 0
0.541315 0.592535 0
0.555923 0.508192 0
1.1337 0.592042 0
1.12934 0.576752 0
1.11386 0.497933 0
1.53395 0.534883 0
1.60472 0.540715 0
1.65877 0.493345 0
1.38278 0.404346 0
1.455 0.490108 0
1.53395 0.534883 0
1.61406 0.355942 0
1.66257 0.40939 0
1.72359 0.446809 0
1.67286 0.2977 0
1.75479 0.337791 0
1.82968 0.354024 0
1.53395 0.534883 0
1.60472 0.540715 0
1.65877 0.493345 0
1.72359 0.446809 0
1.79739 0.461385 0
1.87915 0.436585 0
1.82968 0.354024 0
1.90914 0.349023 0
1.98107 0.315133 0
0.555923 0.508192 0
0.484548 0.383164 0
0.470559 0.226707 0
1.11386 0.497933 0
1.01939 0.380222 0
0.939547 0.235893 0
1.65877 0.493345 0
1.62561 0.403513 0
1.56505 0.282686 0
0.470559 0.226707 0
0.4146 0.0706123 0
0.352295 -0.0633306 0
0.939547 0.235893 0
0.828608 0.0954423 0
0.737648 -0.0198556 0
1.56505 0.282686 0
1.43384 0.160013 0
1.30325 0.0422823 0
1.65877 0.493345 0
1.62561 0.403513 0
1.56505 0.282686 0
1.87915 0.436585 0
1.93076 0.37515 0
1.97171 0.282746 0
1.98107 0.315133 0
2.04385 0.257656 0
2.10319 0.180354 0
1.56505 0.282686 0
1.43384 0.160013 0
1.30325 0.0422823 0
1.97171 0.282746 0
1.96068 0.168134 0
1.94142 0.0422104 0
2.10319 0.180354 0
2.14131 0.093412 0
2.17185 0.00237466 0
2.32298 -0.397925 0
2.28825 -0.27417 0
2.21549 -0.138082 0
2.03251 -0.436841 0
1.92016 -0.278343 0
1.82069 -0.134781 0
1.78001 -0.391919 0
1.63562 -0.223281 0
1.53606 -0.0585138 0
2.21549 -0.138082 0
2.13361 -0.0228513 0
2.03891 0.0904277 0
1.82069 -0.134781 0
1.6922 0.00631386 0
1.57836 0.116105 0
1.53606 -0.0585138 0
1.37321 0.0797033 0
1.26665 0.192664 0
1.78001 -0.391919 0
1.63562 -0.223281 0
1.53606 -0.0585138 0
1.4172 -0.234987 0
1.30553 -0.0978844 0
1.12352 0.0831418 0
0.971856 -0.117969 0
0.853227 0.0270963 0
0.664343 0.185928 0
1.53606 -0.0585138 0
1.37321 0.0797033 0
1.26665 0.192664 0
1.12352 0.0831418 0
1.01185 0.190706 0
0.842308 0.320031 0
0.664343 0.185928 0
0.552696 0.308866 0
0.357511 0.428588 0
2.03891 0.0904277 0
1.95617 0.174246 0
1.87919 0.249495 0
1.57836 0.116105 0
1.44775 0.200434 0
1.32615 0.252296 0
1.26665 0.192664 0
1.09835 0.275316 0
0.977574 0.327091 0
1.87919 0.249495 0
1.85794 0.298694 0
1.85007 0.345393 0
1.32615 0.252296 0
1.24108 0.277228 0
1.1833 0.274179 0
0.977574 0.327091 0
0.826397 0.323332 0
0.703856 0.291137 0
1.26665 0.192664 0
1.09835 0.275316 0
0.977574 0.327091 0
0.842308 0.320031 0
0.727201 0.37158 0
0.553807 0.427897 0
0.357511 0.428588 0
0.280516 0.48162 0
0.119965 0.48014 0
0.977574 0.327091 0
0.826397 0.323332 0
0.703856 0.291137 0
0.553807 0.427897 0
0.481257 0.425306 0
0.363449 0.37827 0
0.119965 0.48014 0
0.0659298 0.48052 0
0.0239977 0.412066 0
0.971856 -0.117969 0
0.853227 0.0270963 0
0.664343 0.185928 0
0.579078 -0.0313738 0
0.415358 0.144268 0
0.250763 0.291678 0
0.150526 0.101681 0
-0.0320009 0.291818 0
-0.243188 0.462118 0
0.664343 0.185928 0
0.552696 0.308866 0
0.357511 0.428588 0
0.250763 0.291678 0
0.0992264 0.422931 0
-0.0885176 0.513216 0
-0.243188 0.462118 0
-0.400803 0.573317 0
-0.557486 0.623173 0
0.150526 0.101681 0
-0.0320009 0.291818 0
-0.243188 0.462118 0
-0.368198 0.260151 0
-0.527926 0.450653 0
-0.688377 0.605972 0
-0.757551 0.462991 0
-0.890466 0.610054 0
-1.00158 0.701755 0
-0.243188 0.462118 0
-0.400803 0.573317 0
-0.557486 0.623173 0
-0.688377 0.605972 0
-0.825163 0.692278 0
-0.916519 0.706376 0
-1.00158 0.701755 0
-1.06364 0.743461 0
-1.06261 0.708978 0
0.357511 0.428588 0
0.280516 0.48162 0
0.119965 0.48014 0
-0.0885176 0.513216 0
-0.203558 0.566863 0
-0.294862 0.552421 0
-0.557486 0.623173 0
-0.637705 0.623006 0
-0.669693 0.564723 0
0.119965 0.48014 0
0.0659298 0.48052 0
0.0239977 0.412066 0
-0.294862 0.552421 0
-0.331448 0.502645 0
-0.317935 0.419987 0
-0.669693 0.564723 0
-0.650776 0.47524 0
-0.587194 0.361896 0
-0.557486 0.623173 0
-0.637705 0.623006 0
-0.669693 0.564723 0
-0.916519 0.706376 0
-0.921835 0.658025 0
-0.888298 0.558473 0
-1.06261 0.708978 0
-1.0054 0.622887 0
-0.934453 0.503387 0
-0.669693 0.564723 0
-0.650776 0.47524 0
-0.587194 0.361896 0
-0.888298 0.558473 0
-0.820641 0.431018 0
-0.725564 0.290001 0
-0.934453 0.503387 0
-0.825559 0.357431 0
-0.713219 0.209081 0
0 0 0
0 0 0
0 0 0
0.577798 -0.0353763 0
0.645669 -0.0360846 0
0.710335 -0.0338896 0
1.0663 -0.130132 0
1.14892 -0.119806 0
1.22004 -0.104649 0
0 0 0
0 0 0
0 0 0
0.710335 -0.0338896 0
0.765999 -0.0294575 0
0.81405 -0.0234026 0
1.22004 -0.104649 0
1.26536 -0.0844127 0
1.29821 -0.0624102 0
1.0663 -0.130132 0
1.14892 -0.119806 0
1.22004 -0.104649 0
1.4176 -0.193582 0