# vtk DataFile Version 3.0
#This file was generated by the deal.II library on 2025/1/4 at 10:04:45
ASCII
DATASET UNSTRUCTURED_GRID

POINTS 8640 double
1.1 1.1 0
0.9625 1.09063 0
0.825 1.08125 0
1.0875 0.9625 0
0.951563 0.954297 0
0.815625 0.946094 0
1.075 0.825 0
0.940625 0.817969 0
0.80625 0.810937 0
0.825 1.08125 0
0.6875 1.07187 0
0.55 1.0625 0
0.815625 0.946094 0
0.679688 0.937891 0
0.54375 0.929688 0
0.80625 0.810937 0
0.671875 0.803906 0
0.5375 0.796875 0
1.075 0.825 0
0.940625 0.817969 0
0.80625 0.810937 0
1.0625 0.6875 0
0.929688 0.681641 0
0.796875 0.675781 0
1.05 0.55 0
0.91875 0.545313 0
0.7875 0.540625 0
0.80625 0.810937 0
0.671875 0.803906 0
0.5375 0.796875 0
0.796875 0.675781 0
0.664062 0.669922 0
0.53125 0.664062 0
0.7875 0.540625 0
0.65625 0.535937 0
0.525 0.53125 0
0.55 1.0625 0
0.4125 1.05313 0
0.275 1.04375 0
0.54375 0.929688 0
0.407813 0.921484 0
0.271875 0.913281 0
0.5375 0.796875 0
0.403125 0.789844 0
0.26875 0.782813 0
0.275 1.04375 0
0.1375 1.03437 0
0 1.025 0
0.271875 0.913281 0
0.135938 0.905078 0
0 0.896875 0
0.26875 0.782813 0
0.134375 0.775781 0
0 0.76875 0
0.5375 0.796875 0
0.403125 0.789844 0
0.26875 0.782813 0
0.53125 0.664062 0
0.398438 0.658203 0
0.265625 0.652344 0
0.525 0.53125 0
0.39375 0.526563 0
0.2625 0.521875 0
0.26875 0.782813 0
0.134375 0.775781 0
0 0.76875 0
0.265625 0.652344 0
0.132812 0.646484 0
0 0.640625 0
0.2625 0.521875 0
0.13125 0.517187 0
0 0.5125 0
1.05 0.55 0
0.91875 0.545313 0
0.7875 0.540625 0
1.0375 0.4125 0
0.907812 0.408984 0
0.778125 0.405469 0
1.025 0.275 0
0.896875 0.272656 0
0.76875 0.270313 0
0.7875 0.540625 0
0.65625 0.535937 0
0.525 0.53125 0
0.778125 0.405469 0
0.648438 0.401953 0
0.51875 0.398438 0
0.76875 0.270313 0
0.640625 0.267969 0
0.5125 0.265625 0
1.025 0.275 0
0.896875 0.272656 0
0.76875 0.270313 0
1.0125 0.1375 0
0.885937 0.136328 0
0.759375 0.135156 0
1 0 0
0.875 0 0
0.75 0 0
0.76875 0.270313 0
0.640625 0.267969 0
0.5125 0.265625 0
0.759375 0.135156 0
0.632812 0.133984 0
0.50625 0.132812 0
0.75 0 0
0.625 0 0
0.5 0 0
0.525 0.53125 0
0.39375 0.526563 0
0.2625 0.521875 0
0.51875 0.398438 0
0.389062 0.394922 0
0.259375 0.391406 0
0.5125 0.265625 0
0.384375 0.263281 0
0.25625 0.260937 0
0.2625 0.521875 0
0.13125 0.517187 0
0 0.5125 0
0.259375 0.391406 0
0.129688 0.387891 0
0 0.384375 0
0.25625 0.260937 0
0.128125 0.258594 0
0 0.25625 0
0.5125 0.265625 0
0.384375 0.263281 0
0.25625 0.260937 0
0.50625 0.132812 0
0.379687 0.131641 0
0.253125 0.130469 0
0.5 0 0
0.375 0 0
0.25 0 0
0.25625 0.260937 0
0.128125 0.258594 0
0 0.25625 0
0.253125 0.130469 0
0.126562 0.129297 0
0 0.128125 0
0.25 0 0
0.125 0 0
0 0 0
2 1 0
1.8875 1.0125 0
1.775 1.025 0
2 0.875 0
1.88594 0.885938 0
1.77188 0.896875 0
2 0.75 0
1.88437 0.759375 0
1.76875 0.76875 0
1.775 1.025 0
1.6625 1.0375 0
1.55 1.05 0
1.77188 0.896875 0
1.65781 0.907813 0
1.54375 0.91875 0
1.76875 0.76875 0
1.65313 0.778125 0
1.5375 0.7875 0
2 0.75 0
1.88437 0.759375 0
1.76875 0.76875 0
2 0.625 0
1.88281 0.632812 0
1.76562 0.640625 0
2 0.5 0
1.88125 0.50625 0
1.7625 0.5125 0
1.76875 0.76875 0
1.65313 0.778125 0
1.5375 0.7875 0
1.76562 0.640625 0
1.64844 0.648438 0
1.53125 0.65625 0
1.7625 0.5125 0
1.64375 0.51875 0
1.525 0.525 0
1.55 1.05 0
1.4375 1.0625 0
1.325 1.075 0
1.54375 0.91875 0
1.42969 0.929688 0
1.31563 0.940625 0
1.5375 0.7875 0
1.42188 0.796875 0
1.30625 0.80625 0
1.325 1.075 0
1.2125 1.0875 0
1.1 1.1 0
1.31563 0.940625 0
1.20156 0.951563 0
1.0875 0.9625 0
1.30625 0.80625 0
1.19063 0.815625 0
1.075 0.825 0
1.5375 0.7875 0
1.42188 0.796875 0
1.30625 0.80625 0
1.53125 0.65625 0
1.41406 0.664062 0
1.29688 0.671875 0
1.525 0.525 0
1.40625 0.53125 0
1.2875 0.5375 0
1.30625 0.80625 0
1.19063 0.815625 0
1.075 0.825 0
1.29688 0.671875 0
1.17969 0.679688 0
1.0625 0.6875 0
1.2875 0.5375 0
1.16875 0.54375 0
1.05 0.55 0
2 0.5 0
1.88125 0.50625 0
1.7625 0.5125 0
2 0.375 0
1.87969 0.379687 0
1.75938 0.384375 0
2 0.25 0
1.87813 0.253125 0
1.75625 0.25625 0
1.7625 0.5125 0
1.64375 0.51875 0
1.525 0.525 0
1.75938 0.384375 0
1.63906 0.389063 0
1.51875 0.39375 0
1.75625 0.25625 0
1.63438 0.259375 0
1.5125 0.2625 0
2 0.25 0
1.87813 0.253125 0
1.75625 0.25625 0
2 0.125 0
1.87656 0.126562 0
1.75313 0.128125 0
2 0 0
1.875 0 0
1.75 0 0
1.75625 0.25625 0
1.63438 0.259375 0
1.5125 0.2625 0
1.75313 0.128125 0
1.62969 0.129688 0
1.50625 0.13125 0
1.75 0 0
1.625 0 0
1.5 0 0
1.525 0.525 0
1.40625 0.53125 0
1.2875 0.5375 0
1.51875 0.39375 0
1.39844 0.398438 0
1.27813 0.403125 0
1.5125 0.2625 0
1.39062 0.265625 0
1.26875 0.26875 0
1.2875 0.5375 0
1.16875 0.54375 0
1.05 0.55 0
1.27813 0.403125 0
1.15781 0.407813 0
1.0375 0.4125 0
1.26875 0.26875 0
1.14688 0.271875 0
1.025 0.275 0
1.5125 0.2625 0
1.39062 0.265625 0
1.26875 0.26875 0
1.50625 0.13125 0
1.38281 0.132812 0
1.25937 0.134375 0
1.5 0 0
1.375 0 0
1.25 0 0
1.26875 0.26875 0
1.14688 0.271875 0
1.025 0.275 0
1.25937 0.134375 0
1.13594 0.135938 0
1.0125 0.1375 0
1.25 0 0
1.125 0 0
1 0 0
1 2 0
0.875 2.00625 0
0.75 2.0125 0
1.0125 1.8875 0
0.885938 1.8918 0
0.759375 1.89609 0
1.025 1.775 0
0.896875 1.77734 0
0.76875 1.77969 0
0.75 2.0125 0
0.625 2.01875 0
0.5 2.025 0
0.759375 1.89609 0
0.632812 1.90039 0
0.50625 1.90469 0
0.76875 1.77969 0
0.640625 1.78203 0
0.5125 1.78437 0
1.025 1.775 0
0.896875 1.77734 0
0.76875 1.77969 0
1.0375 1.6625 0
0.907813 1.66289 0
0.778125 1.66328 0
1.05 1.55 0
0.91875 1.54844 0
0.7875 1.54688 0
0.76875 1.77969 0
0.640625 1.78203 0
0.5125 1.78437 0
0.778125 1.66328 0
0.648438 1.66367 0
0.51875 1.66406 0
0.7875 1.54688 0
0.65625 1.54531 0
0.525 1.54375 0
0.5 2.025 0
0.375 2.03125 0
0.25 2.0375 0
0.50625 1.90469 0
0.379687 1.90898 0
0.253125 1.91328 0
0.5125 1.78437 0
0.384375 1.78672 0
0.25625 1.78906 0
0.25 2.0375 0
0.125 2.04375 0
0 2.05 0
0.253125 1.91328 0
0.126562 1.91758 0
0 1.92187 0
0.25625 1.78906 0
0.128125 1.79141 0
0 1.79375 0
0.5125 1.78437 0
0.384375 1.78672 0
0.25625 1.78906 0
0.51875 1.66406 0
0.389062 1.66445 0
0.259375 1.66484 0
0.525 1.54375 0
0.39375 1.54219 0
0.2625 1.54062 0
0.25625 1.78906 0
0.128125 1.79141 0
0 1.79375 0
0.259375 1.66484 0
0.129688 1.66523 0
0 1.66562 0
0.2625 1.54062 0
0.13125 1.53906 0
0 1.5375 0
1.05 1.55 0
0.91875 1.54844 0
0.7875 1.54688 0
1.0625 1.4375 0
0.929688 1.43398 0
0.796875 1.43047 0
1.075 1.325 0
0.940625 1.31953 0
0.80625 1.31406 0
0.7875 1.54688 0
0.65625 1.54531 0
0.525 1.54375 0
0.796875 1.43047 0
0.664062 1.42695 0
0.53125 1.42344 0
0.80625 1.31406 0
0.671875 1.30859 0
0.5375 1.30312 0
1.075 1.325 0
0.940625 1.31953 0
0.80625 1.31406 0
1.0875 1.2125 0
0.951563 1.20508 0
0.815625 1.19766 0
1.1 1.1 0
0.9625 1.09063 0
0.825 1.08125 0
0.80625 1.31406 0
0.671875 1.30859 0
0.5375 1.30312 0
0.815625 1.19766 0
0.679688 1.19023 0
0.54375 1.18281 0
0.825 1.08125 0
0.6875 1.07187 0
0.55 1.0625 0
0.525 1.54375 0
0.39375 1.54219 0
0.2625 1.54062 0
0.53125 1.42344 0
0.398438 1.41992 0
0.265625 1.41641 0
0.5375 1.30312 0
0.403125 1.29766 0
0.26875 1.29219 0
0.2625 1.54062 0
0.13125 1.53906 0
0 1.5375 0
0.265625 1.41641 0
0.132812 1.41289 0
0 1.40937 0
0.26875 1.29219 0
0.134375 1.28672 0
0 1.28125 0
0.5375 1.30312 0
0.403125 1.29766 0
0.26875 1.29219 0
0.54375 1.18281 0
0.407813 1.17539 0
0.271875 1.16797 0
0.55 1.0625 0
0.4125 1.05313 0
0.275 1.04375 0
0.26875 1.29219 0
0.134375 1.28672 0
0 1.28125 0
0.271875 1.16797 0
0.135938 1.16055 0
0 1.15312 0
0.275 1.04375 0
0.1375 1.03437 0
0 1.025 0
2.9 1.1 0
2.7875 1.0875 0
2.675 1.075 0
2.9125 0.9625 0
2.79844 0.951563 0
2.68438 0.940625 0
2.925 0.825 0
2.80938 0.815625 0
2.69375 0.80625 0
2.675 1.075 0
2.5625 1.0625 0
2.45 1.05 0
2.68438 0.940625 0
2.57031 0.929688 0
2.45625 0.91875 0
2.69375 0.80625 0
2.57812 0.796875 0
2.4625 0.7875 0
2.925 0.825 0
2.80938 0.815625 0
2.69375 0.80625 0
2.9375 0.6875 0
2.82031 0.679688 0
2.70312 0.671875 0
2.95 0.55 0
2.83125 0.54375 0
2.7125 0.5375 0
2.69375 0.80625 0
2.57812 0.796875 0
2.4625 0.7875 0
2.70312 0.671875 0
2.58594 0.664062 0
2.46875 0.65625 0
2.7125 0.5375 0
2.59375 0.53125 0
2.475 0.525 0
2.45 1.05 0
2.3375 1.0375 0
2.225 1.025 0
2.45625 0.91875 0
2.34219 0.907813 0
2.22813 0.896875 0
2.4625 0.7875 0
2.34688 0.778125 0
2.23125 0.76875 0
2.225 1.025 0
2.1125 1.0125 0
2 1 0
2.22813 0.896875 0
2.11406 0.885938 0
2 0.875 0
2.23125 0.76875 0
2.11563 0.759375 0
2 0.75 0
2.4625 0.7875 0
2.34688 0.778125 0
2.23125 0.76875 0
2.46875 0.65625 0
2.35156 0.648438 0
2.23438 0.640625 0
2.475 0.525 0
2.35625 0.51875 0
2.2375 0.5125 0
2.23125 0.76875 0
2.11563 0.759375 0
2 0.75 0
2.23438 0.640625 0
2.11719 0.632812 0
2 0.625 0
2.2375 0.5125 0
2.11875 0.50625 0
2 0.5 0
2.95 0.55 0
2.83125 0.54375 0
2.7125 0.5375 0
2.9625 0.4125 0
2.84219 0.407813 0
2.72188 0.403125 0
2.975 0.275 0
2.85313 0.271875 0
2.73125 0.26875 0
2.7125 0.5375 0
2.59375 0.53125 0
2.475 0.525 0
2.72188 0.403125 0
2.60156 0.398438 0
2.48125 0.39375 0
2.73125 0.26875 0
2.60938 0.265625 0
2.4875 0.2625 0
2.975 0.275 0
2.85313 0.271875 0
2.73125 0.26875 0
2.9875 0.1375 0
2.86406 0.135938 0
2.74063 0.134375 0
3 0 0
2.875 0 0
2.75 0 0
2.73125 0.26875 0
2.60938 0.265625 0
2.4875 0.2625 0
2.74063 0.134375 0
2.61719 0.132812 0
2.49375 0.13125 0
2.75 0 0
2.625 0 0
2.5 0 0
2.475 0.525 0
2.35625 0.51875 0
2.2375 0.5125 0
2.48125 0.39375 0
2.36094 0.389063 0
2.24062 0.384375 0
2.4875 0.2625 0
2.36562 0.259375 0
2.24375 0.25625 0
2.2375 0.5125 0
2.11875 0.50625 0
2 0.5 0
2.24062 0.384375 0
2.12031 0.379687 0
2 0.375 0
2.24375 0.25625 0
2.12188 0.253125 0
2 0.25 0
2.4875 0.2625 0
2.36562 0.259375 0
2.24375 0.25625 0
2.49375 0.13125 0
2.37031 0.129688 0
2.24688 0.128125 0
2.5 0 0
2.375 0 0
2.25 0 0
2.24375 0.25625 0
2.12188 0.253125 0
2 0.25 0
2.24688 0.128125 0
2.12344 0.126562 0
2 0.125 0
2.25 0 0
2.125 0 0
2 0 0
4 1 0
3.8625 1.0125 0
3.725 1.025 0
4 0.875 0
3.86406 0.885938 0
3.72813 0.896875 0
4 0.75 0
3.86563 0.759375 0
3.73125 0.76875 0
3.725 1.025 0
3.5875 1.0375 0
3.45 1.05 0
3.72813 0.896875 0
3.59219 0.907813 0
3.45625 0.91875 0
3.73125 0.76875 0
3.59688 0.778125 0
3.4625 0.7875 0
4 0.75 0
3.86563 0.759375 0
3.73125 0.76875 0
4 0.625 0
[...]
POINT_DATA 8640
VECTORS v double
1.2528 -0.291196 0
1.23245 -0.248537 0
1.19891 -0.20149 0
1.18103 -0.25645 0
1.14838 -0.219315 0
1.11654 -0.184797 0
1.09233 -0.221275 0
1.05512 -0.191335 0
1.02156 -0.161933 0
1.19891 -0.20149 0
1.18713 -0.166914 0
1.16578 -0.12786 0
1.11654 -0.184797 0
1.09463 -0.151138 0
1.07392 -0.12024 0
1.02156 -0.161933 0
0.99338 -0.133274 0
0.970504 -0.106483 0
1.09233 -0.221275 0
1.05512 -0.191335 0
1.02156 -0.161933 0
0.978796 -0.172595 0
0.939091 -0.151311 0
0.902684 -0.130279 0
0.842989 -0.133649 0
0.804781 -0.11876 0
0.769357 -0.103394 0
1.02156 -0.161933 0
0.99338 -0.133274 0
0.970504 -0.106483 0
0.902684 -0.130279 0
0.872877 -0.108902 0
0.847323 -0.0878153 0
0.769357 -0.103394 0
0.739432 -0.087096 0
0.713662 -0.0707676 0
1.16578 -0.12786 0
1.15678 -0.0974962 0
1.14086 -0.0627687 0
1.07392 -0.12024 0
1.05839 -0.0905031 0
1.04409 -0.0602594 0
0.970504 -0.106483 0
0.950228 -0.0794286 0
0.935931 -0.052996 0
1.14086 -0.0627687 0
1.135 -0.0329309 0
1.125 0 0
1.04409 -0.0602594 0
1.03385 -0.0299132 0
1.02539 0 0
0.935931 -0.052996 0
0.921988 -0.0260786 0
0.914062 0 0
0.970504 -0.106483 0
0.950228 -0.0794286 0
0.935931 -0.052996 0
0.847323 -0.0878153 0
0.826759 -0.0659426 0
0.811472 -0.0443781 0
0.713662 -0.0707676 0
0.692727 -0.0536498 0
0.676926 -0.0364824 0
0.935931 -0.052996 0
0.921988 -0.0260786 0
0.914062 0 0
0.811472 -0.0443781 0
0.798604 -0.0223046 0
0.791016 0 0
0.676926 -0.0364824 0
0.66387 -0.0185419 0
0.65625 0 0
0.842989 -0.133649 0
0.804781 -0.11876 0
0.769357 -0.103394 0
0.694371 -0.090619 0
0.656726 -0.0807726 0
0.621312 -0.070536 0
0.522274 -0.053178 0
0.487902 -0.0480019 0
0.455323 -0.0426152 0
0.769357 -0.103394 0
0.739432 -0.087096 0
0.713662 -0.0707676 0
0.621312 -0.070536 0
0.591206 -0.0597346 0
0.565138 -0.0486788 0
0.455323 -0.0426152 0
0.427348 -0.0367414 0
0.403024 -0.0306795 0
0.522274 -0.053178 0
0.487902 -0.0480019 0
0.455323 -0.0426152 0
0.316101 -0.0166522 0
0.288545 -0.0147957 0
0.263254 -0.0130161 0
0 0 0
0 0 0
0 0 0
0.455323 -0.0426152 0
0.427348 -0.0367414 0
0.403024 -0.0306795 0
0.263254 -0.0130161 0
0.240555 -0.0110227 0
0.221703 -0.00911031 0
0 0 0
0 0 0
0 0 0
0.713662 -0.0707676 0
0.692727 -0.0536498 0
0.676926 -0.0364824 0
0.565138 -0.0486788 0
0.543998 -0.0368438 0
0.528326 -0.0248841 0
0.403024 -0.0306795 0
0.383122 -0.0240087 0
0.368533 -0.0171806 0
0.676926 -0.0364824 0
0.66387 -0.0185419 0
0.65625 0 0
0.528326 -0.0248841 0
0.516085 -0.0123326 0
0.509766 0 0
0.368533 -0.0171806 0
0.357164 -0.00942548 0
0.351562 0 0
0.403024 -0.0306795 0
0.383122 -0.0240087 0
0.368533 -0.0171806 0
0.221703 -0.00911031 0
0.205376 -0.00680633 0
0.194372 -0.00460976 0
0 0 0
0 0 0
0 0 0
0.368533 -0.0171806 0
0.357164 -0.00942548 0
0.351562 0 0
0.194372 -0.00460976 0
0.18524 -0.00212614 0
0.181641 0 0
0 0 0
0 0 0
0 0 0
1.7378 -0.316072 0
1.68617 -0.374777 0
1.58947 -0.408643 0
1.58661 -0.234185 0
1.53195 -0.282022 0
1.46351 -0.316107 0
1.43458 -0.175527 0
1.39394 -0.220764 0
1.34851 -0.254022 0
1.58947 -0.408643 0
1.52504 -0.416681 0
1.43283 -0.408027 0
1.46351 -0.316107 0
1.40426 -0.331942 0
1.33667 -0.335486 0
1.34851 -0.254022 0
1.29892 -0.271953 0
1.24729 -0.278013 0
1.43458 -0.175527 0
1.39394 -0.220764 0
1.34851 -0.254022 0
1.30162 -0.131248 0
1.26686 -0.160058 0
1.22516 -0.182491 0
1.12653 -0.0813764 0
1.09508 -0.105587 0
1.05881 -0.125301 0
1.34851 -0.254022 0
1.29892 -0.271953 0
1.24729 -0.278013 0
1.22516 -0.182491 0
1.18 -0.195976 0
1.13114 -0.202254 0
1.05881 -0.125301 0
1.02097 -0.139196 0
0.979957 -0.147473 0
1.43283 -0.408027 0
1.38363 -0.388641 0
1.32021 -0.357579 0
1.33667 -0.335486 0
1.29137 -0.324739 0
1.24163 -0.307226 0
1.24729 -0.278013 0
1.20264 -0.272489 0
1.15954 -0.259791 0
1.32021 -0.357579 0
1.29245 -0.327711 0
1.2528 -0.291196 0
1.24163 -0.307226 0
1.21181 -0.282574 0
1.18103 -0.25645 0
1.15954 -0.259791 0
1.12464 -0.241735 0
1.09233 -0.221275 0
1.24729 -0.278013 0
1.20264 -0.272489 0
1.15954 -0.259791 0
1.13114 -0.202254 0
1.08896 -0.201344 0
1.04648 -0.195622 0
0.979957 -0.147473 0
0.943714 -0.150039 0
0.906575 -0.148366 0
1.15954 -0.259791 0
1.12464 -0.241735 0
1.09233 -0.221275 0
1.04648 -0.195622 0
1.01174 -0.18565 0
0.978796 -0.172595 0
0.906575 -0.148366 0
0.874431 -0.142501 0
0.842989 -0.133649 0
1.12653 -0.0813764 0
1.09508 -0.105587 0
1.05881 -0.125301 0
0.960691 -0.0568981 0
0.935151 -0.0733108 0
0.903198 -0.0865651 0
0.773874 -0.0241214 0
0.750449 -0.03483 0
0.720295 -0.0438502 0
1.05881 -0.125301 0
1.02097 -0.139196 0
0.979957 -0.147473 0
0.903198 -0.0865651 0
0.869592 -0.0954843 0
0.831098 -0.100395 0
0.720295 -0.0438502 0
0.68888 -0.0503744 0
0.652648 -0.0545392 0
0.773874 -0.0241214 0
0.750449 -0.03483 0
0.720295 -0.0438502 0
0.494532 -0.00721973 0
0.484565 -0.0108831 0
0.465254 -0.0140298 0
0 0 0
0 0 0
0 0 0
0.720295 -0.0438502 0
0.68888 -0.0503744 0
0.652648 -0.0545392 0
0.465254 -0.0140298 0
0.445683 -0.0163378 0
0.418777 -0.0176314 0
0 0 0
0 0 0
0 0 0
0.979957 -0.147473 0
0.943714 -0.150039 0
0.906575 -0.148366 0
0.831098 -0.100395 0
0.796341 -0.101554 0
0.759265 -0.100085 0
0.652648 -0.0545392 0
0.619745 -0.0564925 0
0.584423 -0.0569024 0
0.906575 -0.148366 0
0.874431 -0.142501 0
0.842989 -0.133649 0
0.759265 -0.100085 0
0.726791 -0.0964244 0
0.694371 -0.090619 0
0.584423 -0.0569024 0
0.553535 -0.0558237 0
0.522274 -0.053178 0
0.652648 -0.0545392 0
0.619745 -0.0564925 0
0.584423 -0.0569024 0
0.418777 -0.0176314 0
0.394706 -0.0182895 0
0.36664 -0.0181749 0
0 0 0
0 0 0
0 0 0
0.584423 -0.0569024 0
0.553535 -0.0558237 0
0.522274 -0.053178 0
0.36664 -0.0181749 0
0.341812 -0.0178139 0
0.316101 -0.0166522 0
0 0 0
0 0 0
0 0 0
1.24989 -0.0556887 0
1.32192 -0.0502069 0
1.37852 -0.0445725 0
1.26633 -0.134089 0
1.32931 -0.10953 0
1.38228 -0.0884387 0
1.26575 -0.191984 0
1.32163 -0.154462 0
1.37075 -0.123544 0
1.37852 -0.0445725 0
1.41977 -0.0395355 0
1.4502 -0.0333947 0
1.38228 -0.0884387 0
1.41902 -0.0730151 0
1.44838 -0.0583642 0
1.37075 -0.123544 0
1.40386 -0.100112 0
1.43205 -0.0785674 0
1.26575 -0.191984 0
1.32163 -0.154462 0
1.37075 -0.123544 0
1.28459 -0.261899 0
1.32756 -0.207982 0
1.3654 -0.164194 0
1.30339 -0.288672 0
1.32816 -0.231253 0
1.35093 -0.183312 0
1.37075 -0.123544 0
1.40386 -0.100112 0
1.43205 -0.0785674 0
1.3654 -0.164194 0
1.39096 -0.131656 0
1.41341 -0.10218 0
1.35093 -0.183312 0
1.36755 -0.147237 0
1.38321 -0.113529 0
1.4502 -0.0333947 0
1.47296 -0.0266522 0
1.4871 -0.0184537 0
1.44838 -0.0583642 0
1.46869 -0.0450482 0
1.48278 -0.0304116 0
1.43205 -0.0785674 0
1.45091 -0.059152 0
1.46563 -0.0392455 0
1.4871 -0.0184537 0
1.49744 -0.00961773 0
1.5 0 0
1.48278 -0.0304116 0
1.49121 -0.0154467 0
1.49414 0 0
1.46563 -0.0392455 0
1.47319 -0.0198333 0
1.47656 0 0
1.43205 -0.0785674 0
1.45091 -0.059152 0
1.46563 -0.0392455 0
1.41341 -0.10218 0
1.42787 -0.0766877 0
1.43986 -0.0509671 0
1.38321 -0.113529 0
1.39294 -0.0845251 0
1.40194 -0.0554089 0
1.46563 -0.0392455 0
1.47319 -0.0198333 0
1.47656 0 0
1.43986 -0.0509671 0
1.44475 -0.0261404 0
1.44727 0 0
1.40194 -0.0554089 0
1.40454 -0.0282722 0
1.40625 0 0
1.30339 -0.288672 0
1.32816 -0.231253 0
1.35093 -0.183312 0
1.3021 -0.317374 0
1.31699 -0.25868 0
1.32581 -0.206315 0
1.30519 -0.319405 0
1.30449 -0.26233 0
1.29724 -0.210411 0
1.35093 -0.183312 0
1.36755 -0.147237 0
1.38321 -0.113529 0
1.32581 -0.206315 0
1.33651 -0.167256 0
1.34368 -0.128625 0
1.29724 -0.210411 0
1.29855 -0.170584 0
1.29624 -0.130849 0
1.30519 -0.319405 0
1.30449 -0.26233 0
1.29724 -0.210411 0
1.28208 -0.30973 0
1.27115 -0.262554 0
1.25138 -0.211441 0
1.2528 -0.291196 0
1.23245 -0.248537 0
1.19891 -0.20149 0
1.29724 -0.210411 0
1.29855 -0.170584 0
1.29624 -0.130849 0
1.25138 -0.211441 0
1.24584 -0.174974 0
1.23537 -0.13389 0
1.19891 -0.20149 0
1.18713 -0.166914 0
1.16578 -0.12786 0
1.38321 -0.113529 0
1.39294 -0.0845251 0
1.40194 -0.0554089 0
1.34368 -0.128625 0
1.34945 -0.0964354 0
1.35302 -0.063521 0
1.29624 -0.130849 0
1.29597 -0.0978324 0
1.29349 -0.0636762 0
1.40194 -0.0554089 0
1.40454 -0.0282722 0
1.40625 0 0
1.35302 -0.063521 0
1.35404 -0.033388 0
1.35352 0 0
1.29349 -0.0636762 0
1.29173 -0.0328977 0
1.28906 0 0
1.29624 -0.130849 0
1.29597 -0.0978324 0
1.29349 -0.0636762 0
1.23537 -0.13389 0
1.23029 -0.101853 0
1.22233 -0.0660901 0
1.16578 -0.12786 0
1.15678 -0.0974962 0
1.14086 -0.0627687 0
1.29349 -0.0636762 0
1.29173 -0.0328977 0
1.28906 0 0
1.22233 -0.0660901 0
1.21826 -0.0352045 0
1.21289 0 0
1.14086 -0.0627687 0
1.135 -0.0329309 0
1.125 0 0
1.66937 0.427405 0
1.82224 0.342857 0
1.87332 0.248392 0
1.64706 0.326549 0
1.70694 0.286668 0
1.75855 0.218489 0
1.41776 0.264405 0
1.47608 0.234728 0
1.52378 0.188683 0
1.87332 0.248392 0
1.94866 0.146083 0
1.94181 0.0440396 0
1.75855 0.218489 0
1.77675 0.14046 0
1.78231 0.0500718 0
1.52378 0.188683 0
1.55185 0.129472 0
1.5665 0.0631 0
1.41776 0.264405 0
1.47608 0.234728 0
1.52378 0.188683 0
1.30801 0.157538 0
1.34379 0.139666 0
1.38088 0.109714 0
1.1915 0.126644 0
1.21312 0.115736 0
1.23295 0.0965145 0
1.52378 0.188683 0
1.55185 0.129472 0
1.5665 0.0631 0
1.38088 0.109714 0
1.39669 0.072867 0
1.40775 0.0295112 0
1.23295 0.0965145 0
1.23869 0.0696512 0
1.2406 0.0384952 0
1.94181 0.0440396 0
1.9502 -0.0570261 0
1.88148 -0.155255 0
1.78231 0.0500718 0
1.75634 -0.0356135 0
1.71467 -0.116046 0
1.5665 0.0631 0
1.55419 -0.0044126 0
1.53009 -0.0685296 0
1.88148 -0.155255 0
1.83247 -0.239407 0
1.7378 -0.316072 0
1.71467 -0.116046 0
1.66032 -0.180464 0
1.58661 -0.234185 0
1.53009 -0.0685296 0
1.48379 -0.124428 0
1.43458 -0.175527 0
1.5665 0.0631 0
1.55419 -0.0044126 0
1.53009 -0.0685296 0
1.40775 0.0295112 0
1.39725 -0.0149022 0
1.37895 -0.0592675 0
1.2406 0.0384952 0
1.22576 0.0052494 0
1.20505 -0.0272921 0
1.53009 -0.0685296 0
1.48379 -0.124428 0
1.43458 -0.175527 0
1.37895 -0.0592675 0
1.34484 -0.0985302 0
1.30162 -0.131248 0
1.20505 -0.0272921 0
1.16887 -0.056189 0
1.12653 -0.0813764 0
1.1915 0.126644 0
1.21312 0.115736 0
1.23295 0.0965145 0
1.00481 0.0827282 0
1.02109 0.0772004 0
1.03837 0.0653271 0
0.786816 0.0579825 0
0.804121 0.056172 0
0.822756 0.0507645 0
1.23295 0.0965145 0
1.23869 0.0696512 0
1.2406 0.0384952 0
1.03837 0.0653271 0
1.04443 0.0479164 0
1.04681 0.0271704 0
0.822756 0.0507645 0
0.831628 0.0410253 0
0.837594 0.0289484 0
0.786816 0.0579825 0
0.804121 0.056172 0
0.822756 0.0507645 0
0.421376 0.0197501 0
0.445808 0.0191878 0
0.471749 0.0173971 0
0 0 0
0 0 0
0 0 0
0.822756 0.0507645 0
0.831628 0.0410253 0
0.837594 0.0289484 0
0.471749 0.0173971 0
0.491463 0.0146119 0
0.507819 0.0107236 0
0 0 0
0 0 0
0 0 0
1.2406 0.0384952 0
1.22576 0.0052494 0
1.20505 -0.0272921 0
1.04681 0.0271704 0
1.03649 0.00464696 0
1.02 -0.0177936 0
0.837594 0.0289484 0
0.832277 0.0149344 0
0.821587 0.000641051 0
1.20505 -0.0272921 0
1.16887 -0.056189 0
1.12653 -0.0813764 0
1.02 -0.0177936 0
0.993594 -0.0385755 0
0.960691 -0.0568981 0
0.821587 0.000641051 0
0.80108 -0.0126575 0
0.773874 -0.0241214 0
0.837594 0.0289484 0
0.832277 0.0149344 0
0.821587 0.000641051 0
0.507819 0.0107236 0
0.515804 0.0065063 0
0.5166 0.00162575 0
0 0 0
0 0 0
0 0 0
0.821587 0.000641051 0
0.80108 -0.0126575 0
0.773874 -0.0241214 0
0.5166 0.00162575 0
0.510136 -0.002876 0
0.494532 -0.00721973 0
0 0 0
0 0 0
0 0 0
1.18562 -0.275608 0
1.14815 -0.203841 0
1.11734 -0.0681401 0
1.24712 -0.25087 0
1.20831 -0.193271 0
1.15618 -0.115258 0
1.26309 -0.19707 0
1.2206 -0.14831 0
1.16297 -0.086012 0
1.11734 -0.0681401 0
1.12719 0.0523106 0
1.17539 0.200169 0
1.15618 -0.115258 0
1.18866 -0.00340748 0
1.20165 0.110692 0
1.16297 -0.086012 0
1.13829 0.00131779 0
1.13681 0.0809002 0
1.26309 -0.19707 0
1.2206 -0.14831 0
1.16297 -0.086012 0
1.18485 -0.121696 0
1.13317 -0.088848 0
1.09406 -0.0519473 0
1.07028 -0.0748681 0
1.0519 -0.0595952 0
1.03574 -0.03836 0
1.16297 -0.086012 0
1.13829 0.00131779 0
1.13681 0.0809002 0
1.09406 -0.0519473 0
1.08662 0.00269577 0
1.10008 0.0521108 0
1.03574 -0.03836 0
1.0354 -0.00193856 0
1.04567 0.0345396 0
1.17539 0.200169 0
1.30726 0.317812 0
1.4068 0.388956 0
1.20165 0.110692 0
1.30283 0.222262 0
1.39898 0.296964 0
1.13681 0.0809002 0
1.17179 0.159893 0
1.23157 0.212845 0
1.4068 0.388956 0
1.55785 0.434791 0
1.66937 0.427405 0
1.39898 0.296964 0
1.52757 0.334765 0
1.64706 0.326549 0
1.23157 0.212845 0
1.31871 0.255121 0
1.41776 0.264405 0
1.13681 0.0809002 0
1.17179 0.159893 0
1.23157 0.212845 0
1.10008 0.0521108 0
1.13472 0.101469 0
1.18548 0.135457 0
1.04567 0.0345396 0
1.06828 0.0729208 0
1.10314 0.102256 0
1.23157 0.212845 0
1.31871 0.255121 0
1.41776 0.264405 0
1.18548 0.135457 0
1.2409 0.156 0
1.30801 0.157538 0
1.10314 0.102256 0
1.14515 0.12254 0
1.1915 0.126644 0
1.07028 -0.0748681 0
1.0519 -0.0595952 0
1.03574 -0.03836 0
0.925367 -0.0427217 0
0.907595 -0.0312937 0
0.894864 -0.0169981 0
0.660077 -0.019312 0
0.651683 -0.0143665 0
0.651141 -0.00792259 0
1.03574 -0.03836 0
1.0354 -0.00193856 0
1.04567 0.0345396 0
0.894864 -0.0169981 0
0.889214 0.00493786 0
0.895503 0.0262716 0
0.651141 -0.00792259 0
0.653977 0.0033806 0
0.670138 0.0156145 0
0.660077 -0.019312 0
0.651683 -0.0143665 0
0.651141 -0.00792259 0
0.307665 -0.0061436 0
0.291454 -0.00328427 0
0.297726 -0.000136823 0
0 0 0
0 0 0
0 0 0
0.651141 -0.00792259 0
0.653977 0.0033806 0
0.670138 0.0156145 0
0.297726 -0.000136823 0
0.297126 0.00371808 0
0.31288 0.00808822 0
0 0 0
0 0 0
0 0 0
1.04567 0.0345396 0
1.06828 0.0729208 0
1.10314 0.102256 0
0.895503 0.0262716 0
0.909891 0.047899 0
0.936639 0.0656549 0
0.670138 0.0156145 0
0.689152 0.0296301 0
0.719852 0.0426049 0
1.10314 0.102256 0
1.14515 0.12254 0
1.1915 0.126644 0
0.936639 0.0656549 0
0.966702 0.0779199 0
1.00481 0.0827282 0
0.719852 0.0426049 0
0.750354 0.0528049 0
0.786816 0.0579825 0
0.670138 0.0156145 0
0.689152 0.0296301 0
0.719852 0.0426049 0
0.31288 0.00808822 0
0.32806 0.0118897 0
0.356356 0.0156377 0
0 0 0
0 0 0
0 0 0
0.719852 0.0426049 0
0.750354 0.0528049 0
0.786816 0.0579825 0
0.356356 0.0156377 0
0.384816 0.0179329 0
0.421376 0.0197501 0
0 0 0
0 0 0
0 0 0
0.971167 -1.25125 0
0.759535 -0.889645 0
0.71859 -0.399953 0
0.689001 -1.10447 0
0.48108 -0.662178 0
0.379351 -0.0914953 0
0.487545 -0.985617 0
0.240384 -0.524057 0
0.111569 -0.028967 0
0.71859 -0.399953 0
0.43313 0.119085 0
0.183133 0.572247 0
0.379351 -0.0914953 0
0.132771 0.325256 0
-0.174191 0.815919 0
0.111569 -0.028967 0
-0.053492 0.490196 0
-0.294055 1.10836 0
0.487545 -0.985617 0
0.240384 -0.524057 0
0.111569 -0.028967 0
0.353786 -0.785394 0
0.127892 -0.31635 0
0.0289474 0.197255 0
0.240943 -0.564772 0
0.144206 -0.231524 0
0.0747149 0.177921 0
0.111569 -0.028967 0
-0.053492 0.490196 0
-0.294055 1.10836 0
0.0289474 0.197255 0
-0.0112191 0.670353 0
-0.10684 1.07199 0
0.0747149 0.177921 0
0.145838 0.488472 0
0.278268 0.818572 0
0.183133 0.572247 0
-0.103578 1.10182 0
-0.358081 1.33401 0
-0.174191 0.815919 0
-0.29223 1.34731 0
-0.320654 1.40143 0
-0.294055 1.10836 0
-0.163387 1.42195 0
-0.0602793 1.37007 0
-0.358081 1.33401 0
-0.589735 1.37132 0
-0.638294 1.22814 0
-0.320654 1.40143 0
-0.433693 1.39326 0
-0.383437 1.14305 0
-0.0602793 1.37007 0
-0.0636759 1.40139 0
0.0314787 1.04332 0
-0.294055 1.10836 0
-0.163387 1.42195 0
-0.0602793 1.37007 0
-0.10684 1.07199 0
0.18439 1.24221 0
0.344714 1.25816 0
0.278268 0.818572 0
0.660213 0.965476 0
0.812249 1.10725 0
-0.0602793 1.37007 0
-0.0636759 1.40139 0
0.0314787 1.04332 0
0.344714 1.25816 0
0.447994 1.31777 0
0.509077 0.968931 0
0.812249 1.10725 0
0.983266 1.23863 0
1.06319 1.02379 0
0.240943 -0.564772 0
0.144206 -0.231524 0
0.0747149 0.177921 0
0.305423 -0.449033 0
0.266015 -0.165048 0
0.259285 0.189666 0
0.515441 -0.299593 0
0.508376 -0.0609385 0
0.591084 0.131169 0
0.0747149 0.177921 0
0.145838 0.488472 0
0.278268 0.818572 0
0.259285 0.189666 0
0.445571 0.443658 0
0.661763 0.614136 0
0.591084 0.131169 0
0.72034 0.207366 0
0.844575 0.38796 0
0.515441 -0.299593 0
0.508376 -0.0609385 0
0.591084 0.131169 0
0.820356 -0.283832 0
0.838585 -0.210313 0
0.928664 -0.075843 0
1.18562 -0.275608 0
1.14815 -0.203841 0
1.11734 -0.0681401 0
0.591084 0.131169 0
0.72034 0.207366 0
0.844575 0.38796 0
0.928664 -0.075843 0
0.987369 0.0818279 0
1.05304 0.280397 0
1.11734 -0.0681401 0
1.12719 0.0523106 0
1.17539 0.200169 0
0.278268 0.818572 0
0.660213 0.965476 0
0.812249 1.10725 0
0.661763 0.614136 0
0.952647 0.797796 0
1.18229 0.943421 0
0.844575 0.38796 0
1.09795 0.602834 0
1.3686 0.71466 0
0.812249 1.10725 0
0.983266 1.23863 0
1.06319 1.02379 0
1.18229 0.943421 0
1.39111 1.0541 0
1.5348 0.955171 0
1.3686 0.71466 0
1.61363 0.801347 0
1.86225 0.783404 0
0.844575 0.38796 0
1.09795 0.602834 0
1.3686 0.71466 0
1.05304 0.280397 0
1.18231 0.440879 0
1.36511 0.566313 0
1.17539 0.200169 0
1.30726 0.317812 0
1.4068 0.388956 0
1.3686 0.71466 0
1.61363 0.801347 0
1.86225 0.783404 0
1.36511 0.566313 0
1.55623 0.615188 0
1.77591 0.638104 0
1.4068 0.388956 0
1.55785 0.434791 0
1.66937 0.427405 0
1.61985 -0.63818 0
1.82369 -0.620619 0
1.91829 -0.578181 0
1.75302 -0.794555 0
1.87588 -0.77233 0
2.00063 -0.755292 0
1.77199 -0.899773 0
1.91194 -0.904398 0
2.09479 -0.872167 0
1.91829 -0.578181 0
2.08303 -0.505767 0
2.17984 -0.398532 0
2.00063 -0.755292 0
2.13909 -0.651917 0
2.1923 -0.489306 0
2.09479 -0.872167 0
2.15299 -0.699293 0
2.15684 -0.499492 0
1.77199 -0.899773 0
1.91194 -0.904398 0
2.09479 -0.872167 0
1.73436 -1.04793 0
2.01083 -1.10512 0
2.0537 -0.924038 0
1.83109 -1.27356 0
1.96711 -1.16116 0
1.79483 -0.822416 0
2.09479 -0.872167 0
2.15299 -0.699293 0
2.15684 -0.499492 0
2.0537 -0.924038 0
2.02059 -0.666283 0
1.86281 -0.34007 0
1.79483 -0.822416 0
1.71441 -0.542324 0
1.4275 -0.129965 0
2.17984 -0.398532 0
2.23988 -0.256456 0
2.21937 -0.11367 0
2.1923 -0.489306 0
2.15591 -0.301985 0
2.0542 -0.130528 0
2.15684 -0.499492 0
1.98601 -0.287992 0
1.75208 -0.0864801 0
2.21937 -0.11367 0
2.21035 0.00491319 0
2.15242 0.0980513 0
2.0542 -0.130528 0
1.95448 0.0142362 0
1.8311 0.117054 0
1.75208 -0.0864801 0
1.47208 0.0450827 0
1.18386 0.108379 0
2.15684 -0.499492 0
1.98601 -0.287992 0
1.75208 -0.0864801 0
1.86281 -0.34007 0
1.61356 -0.0550803 0
1.32501 0.229994 0
1.4275 -0.129965 0
1.28794 0.0936538 0
1.00773 0.389174 0
1.75208 -0.0864801 0
1.47208 0.0450827 0
1.18386 0.108379 0
1.32501 0.229994 0
1.05994 0.374175 0
0.763966 0.435829 0
1.00773 0.389174 0
0.819432 0.526153 0
0.477845 0.674491 0
1.83109 -1.27356 0
1.96711 -1.16116 0
1.79483 -0.822416 0
1.73699 -1.38272 0
1.62887 -1.1044 0
1.59354 -0.83203 0
1.49202 -1.38383 0
1.38941 -1.08179 0
1.41333 -0.715234 0
1.79483 -0.822416 0
1.71441 -0.542324 0
1.4275 -0.129965 0
1.59354 -0.83203 0
1.40821 -0.421228 0
1.1955 -0.0265938 0
1.41333 -0.715234 0
1.05658 -0.195062 0
0.906609 0.154848 0
1.49202 -1.38383 0
1.38941 -1.08179 0
1.41333 -0.715234 0
1.22163 -1.30323 0
1.08982 -0.962991 0
0.997774 -0.516635 0
0.971167 -1.25125 0
0.759535 -0.889645 0
0.71859 -0.399953 0
1.41333 -0.715234 0
1.05658 -0.195062 0
0.906609 0.154848 0
0.997774 -0.516635 0
0.703074 -0.0562778 0
0.563702 0.351907 0
0.71859 -0.399953 0
0.43313 0.119085 0
0.183133 0.572247 0
1.4275 -0.129965 0
1.28794 0.0936538 0
1.00773 0.389174 0
1.1955 -0.0265938 0
1.01282 0.271373 0
0.708624 0.602204 0
0.906609 0.154848 0
0.527824 0.549724 0
0.264638 0.848027 0
1.00773 0.389174 0
0.819432 0.526153 0
0.477845 0.674491 0
0.708624 0.602204 0
0.487034 0.766777 0
0.171217 0.836789 0
0.264638 0.848027 0
-0.0125023 1.02488 0
-0.225171 1.00406 0
0.906609 0.154848 0
0.527824 0.549724 0
0.264638 0.848027 0
0.563702 0.351907 0
0.208138 0.751337 0
-0.112002 1.05477 0
0.183133 0.572247 0
-0.103578 1.10182 0
-0.358081 1.33401 0
0.264638 0.848027 0
-0.0125023 1.02488 0
-0.225171 1.00406 0
-0.112002 1.05477 0
-0.407718 1.19194 0
-0.550053 1.14054 0
-0.358081 1.33401 0
-0.589735 1.37132 0
-0.638294 1.22814 0
0 0 0
0 0 0
0 0 0
0.273861 -0.0231167 0
0.333822 -0.0227021 0
0.369861 -0.0218853 0
0.525701 -0.0818912 0
0.60146 -0.0871215 0
0.675004 -0.0939608 0
0 0 0
0 0 0
0 0 0
0.369861 -0.0218853 0
0.420399 -0.0218373 0
0.462846 -0.0221793 0
0.675004 -0.0939608 0
0.757359 -0.0974938 0
0.827182 -0.0973509 0
0.525701 -0.0818912 0
0.60146 -0.0871215 0
0.675004 -0.0939608 0
0.797288 -0.158042 0