# vtk DataFile Version 3.0
#This file was generated by the deal.II library on 2025/1/4 at 10:04:18
ASCII
DATASET UNSTRUCTURED_GRID

POINTS 8640 double
1.1 1.1 0
0.9625 1.09063 0
0.825 1.08125 0
1.0875 0.9625 0
0.951563 0.954297 0
0.815625 0.946094 0
1.075 0.825 0
0.940625 0.817969 0
0.80625 0.810937 0
0.825 1.08125 0
0.6875 1.07187 0
0.55 1.0625 0
0.815625 0.946094 0
0.679688 0.937891 0
0.54375 0.929688 0
0.80625 0.810937 0
0.671875 0.803906 0
0.5375 0.796875 0
1.075 0.825 0
0.940625 0.817969 0
0.80625 0.810937 0
1.0625 0.6875 0
0.929688 0.681641 0
0.796875 0.675781 0
1.05 0.55 0
0.91875 0.545313 0
0.7875 0.540625 0
0.80625 0.810937 0
0.671875 0.803906 0
0.5375 0.796875 0
0.796875 0.675781 0
0.664062 0.669922 0
0.53125 0.664062 0
0.7875 0.540625 0
0.65625 0.535937 0
0.525 0.53125 0
0.55 1.0625 0
0.4125 1.05313 0
0.275 1.04375 0
0.54375 0.929688 0
0.407813 0.921484 0
0.271875 0.913281 0
0.5375 0.796875 0
0.403125 0.789844 0
0.26875 0.782813 0
0.275 1.04375 0
0.1375 1.03437 0
0 1.025 0
0.271875 0.913281 0
0.135938 0.905078 0
0 0.896875 0
0.26875 0.782813 0
0.134375 0.775781 0
0 0.76875 0
0.5375 0.796875 0
0.403125 0.789844 0
0.26875 0.782813 0
0.53125 0.664062 0
0.398438 0.658203 0
0.265625 0.652344 0
0.525 0.53125 0
0.39375 0.526563 0
0.2625 0.521875 0
0.26875 0.782813 0
0.134375 0.775781 0
0 0.76875 0
0.265625 0.652344 0
0.132812 0.646484 0
0 0.640625 0
0.2625 0.521875 0
0.13125 0.517187 0
0 0.5125 0
1.05 0.55 0
0.91875 0.545313 0
0.7875 0.540625 0
1.0375 0.4125 0
0.907812 0.408984 0
0.778125 0.405469 0
1.025 0.275 0
0.896875 0.272656 0
0.76875 0.270313 0
0.7875 0.540625 0
0.65625 0.535937 0
0.525 0.53125 0
0.778125 0.405469 0
0.648438 0.401953 0
0.51875 0.398438 0
0.76875 0.270313 0
0.640625 0.267969 0
0.5125 0.265625 0
1.025 0.275 0
0.896875 0.272656 0
0.76875 0.270313 0
1.0125 0.1375 0
0.885937 0.136328 0
0.759375 0.135156 0
1 0 0
0.875 0 0
0.75 0 0
0.76875 0.270313 0
0.640625 0.267969 0
0.5125 0.265625 0
0.759375 0.135156 0
0.632812 0.133984 0
0.50625 0.132812 0
0.75 0 0
0.625 0 0
0.5 0 0
0.525 0.53125 0
0.39375 0.526563 0
0.2625 0.521875 0
0.51875 0.398438 0
0.389062 0.394922 0
0.259375 0.391406 0
0.5125 0.265625 0
0.384375 0.263281 0
0.25625 0.260937 0
0.2625 0.521875 0
0.13125 0.517187 0
0 0.5125 0
0.259375 0.391406 0
0.129688 0.387891 0
0 0.384375 0
0.25625 0.260937 0
0.128125 0.258594 0
0 0.25625 0
0.5125 0.265625 0
0.384375 0.263281 0
0.25625 0.260937 0
0.50625 0.132812 0
0.379687 0.131641 0
0.253125 0.130469 0
0.5 0 0
0.375 0 0
0.25 0 0
0.25625 0.260937 0
0.128125 0.258594 0
0 0.25625 0
0.253125 0.130469 0
0.126562 0.129297 0
0 0.128125 0
0.25 0 0
0.125 0 0
0 0 0
2 1 0
1.8875 1.0125 0
1.775 1.025 0
2 0.875 0
1.88594 0.885938 0
1.77188 0.896875 0
2 0.75 0
1.88437 0.759375 0
1.76875 0.76875 0
1.775 1.025 0
1.6625 1.0375 0
1.55 1.05 0
1.77188 0.896875 0
1.65781 0.907813 0
1.54375 0.91875 0
1.76875 0.76875 0
1.65313 0.778125 0
1.5375 0.7875 0
2 0.75 0
1.88437 0.759375 0
1.76875 0.76875 0
2 0.625 0
1.88281 0.632812 0
1.76562 0.640625 0
2 0.5 0
1.88125 0.50625 0
1.7625 0.5125 0
1.76875 0.76875 0
1.65313 0.778125 0
1.5375 0.7875 0
1.76562 0.640625 0
1.64844 0.648438 0
1.53125 0.65625 0
1.7625 0.5125 0
1.64375 0.51875 0
1.525 0.525 0
1.55 1.05 0
1.4375 1.0625 0
1.325 1.075 0
1.54375 0.91875 0
1.42969 0.929688 0
1.31563 0.940625 0
1.5375 0.7875 0
1.42188 0.796875 0
1.30625 0.80625 0
1.325 1.075 0
1.2125 1.0875 0
1.1 1.1 0
1.31563 0.940625 0
1.20156 0.951563 0
1.0875 0.9625 0
1.30625 0.80625 0
1.19063 0.815625 0
1.075 0.825 0
1.5375 0.7875 0
1.42188 0.796875 0
1.30625 0.80625 0
1.53125 0.65625 0
1.41406 0.664062 0
1.29688 0.671875 0
1.525 0.525 0
1.40625 0.53125 0
1.2875 0.5375 0
1.30625 0.80625 0
1.19063 0.815625 0
1.075 0.825 0
1.29688 0.671875 0
1.17969 0.679688 0
1.0625 0.6875 0
1.2875 0.5375 0
1.16875 0.54375 0
1.05 0.55 0
2 0.5 0
1.88125 0.50625 0
1.7625 0.5125 0
2 0.375 0
1.87969 0.379687 0
1.75938 0.384375 0
2 0.25 0
1.87813 0.253125 0
1.75625 0.25625 0
1.7625 0.5125 0
1.64375 0.51875 0
1.525 0.525 0
1.75938 0.384375 0
1.63906 0.389063 0
1.51875 0.39375 0
1.75625 0.25625 0
1.63438 0.259375 0
1.5125 0.2625 0
2 0.25 0
1.87813 0.253125 0
1.75625 0.25625 0
2 0.125 0
1.87656 0.126562 0
1.75313 0.128125 0
2 0 0
1.875 0 0
1.75 0 0
1.75625 0.25625 0
1.63438 0.259375 0
1.5125 0.2625 0
1.75313 0.128125 0
1.62969 0.129688 0
1.50625 0.13125 0
1.75 0 0
1.625 0 0
1.5 0 0
1.525 0.525 0
1.40625 0.53125 0
1.2875 0.5375 0
1.51875 0.39375 0
1.39844 0.398438 0
1.27813 0.403125 0
1.5125 0.2625 0
1.39062 0.265625 0
1.26875 0.26875 0
1.2875 0.5375 0
1.16875 0.54375 0
1.05 0.55 0
1.27813 0.403125 0
1.15781 0.407813 0
1.0375 0.4125 0
1.26875 0.26875 0
1.14688 0.271875 0
1.025 0.275 0
1.5125 0.2625 0
1.39062 0.265625 0
1.26875 0.26875 0
1.50625 0.13125 0
1.38281 0.132812 0
1.25937 0.134375 0
1.5 0 0
1.375 0 0
1.25 0 0
1.26875 0.26875 0
1.14688 0.271875 0
1.025 0.275 0
1.25937 0.134375 0
1.13594 0.135938 0
1.0125 0.1375 0
1.25 0 0
1.125 0 0
1 0 0
1 2 0
0.875 2.00625 0
0.75 2.0125 0
1.0125 1.8875 0
0.885938 1.8918 0
0.759375 1.89609 0
1.025 1.775 0
0.896875 1.77734 0
0.76875 1.77969 0
0.75 2.0125 0
0.625 2.01875 0
0.5 2.025 0
0.759375 1.89609 0
0.632812 1.90039 0
0.50625 1.90469 0
0.76875 1.77969 0
0.640625 1.78203 0
0.5125 1.78437 0
1.025 1.775 0
0.896875 1.77734 0
0.76875 1.77969 0
1.0375 1.6625 0
0.907813 1.66289 0
0.778125 1.66328 0
1.05 1.55 0
0.91875 1.54844 0
0.7875 1.54688 0
0.76875 1.77969 0
0.640625 1.78203 0
0.5125 1.78437 0
0.778125 1.66328 0
0.648438 1.66367 0
0.51875 1.66406 0
0.7875 1.54688 0
0.65625 1.54531 0
0.525 1.54375 0
0.5 2.025 0
0.375 2.03125 0
0.25 2.0375 0
0.50625 1.90469 0
0.379687 1.90898 0
0.253125 1.91328 0
0.5125 1.78437 0
0.384375 1.78672 0
0.25625 1.78906 0
0.25 2.0375 0
0.125 2.04375 0
0 2.05 0
0.253125 1.91328 0
0.126562 1.91758 0
0 1.92187 0
0.25625 1.78906 0
0.128125 1.79141 0
0 1.79375 0
0.5125 1.78437 0
0.384375 1.78672 0
0.25625 1.78906 0
0.51875 1.66406 0
0.389062 1.66445 0
0.259375 1.66484 0
0.525 1.54375 0
0.39375 1.54219 0
0.2625 1.54062 0
0.25625 1.78906 0
0.128125 1.79141 0
0 1.79375 0
0.259375 1.66484 0
0.129688 1.66523 0
0 1.66562 0
0.2625 1.54062 0
0.13125 1.53906 0
0 1.5375 0
1.05 1.55 0
0.91875 1.54844 0
0.7875 1.54688 0
1.0625 1.4375 0
0.929688 1.43398 0
0.796875 1.43047 0
1.075 1.325 0
0.940625 1.31953 0
0.80625 1.31406 0
0.7875 1.54688 0
0.65625 1.54531 0
0.525 1.54375 0
0.796875 1.43047 0
0.664062 1.42695 0
0.53125 1.42344 0
0.80625 1.31406 0
0.671875 1.30859 0
0.5375 1.30312 0
1.075 1.325 0
0.940625 1.31953 0
0.80625 1.31406 0
1.0875 1.2125 0
0.951563 1.20508 0
0.815625 1.19766 0
1.1 1.1 0
0.9625 1.09063 0
0.825 1.08125 0
0.80625 1.31406 0
0.671875 1.30859 0
0.5375 1.30312 0
0.815625 1.19766 0
0.679688 1.19023 0
0.54375 1.18281 0
0.825 1.08125 0
0.6875 1.07187 0
0.55 1.0625 0
0.525 1.54375 0
0.39375 1.54219 0
0.2625 1.54062 0
0.53125 1.42344 0
0.398438 1.41992 0
0.265625 1.41641 0
0.5375 1.30312 0
0.403125 1.29766 0
0.26875 1.29219 0
0.2625 1.54062 0
0.13125 1.53906 0
0 1.5375 0
0.265625 1.41641 0
0.132812 1.41289 0
0 1.40937 0
0.26875 1.29219 0
0.134375 1.28672 0
0 1.28125 0
0.5375 1.30312 0
0.403125 1.29766 0
0.26875 1.29219 0
0.54375 1.18281 0
0.407813 1.17539 0
0.271875 1.16797 0
0.55 1.0625 0
0.4125 1.05313 0
0.275 1.04375 0
0.26875 1.29219 0
0.134375 1.28672 0
0 1.28125 0
0.271875 1.16797 0
0.135938 1.16055 0
0 1.15312 0
0.275 1.04375 0
0.1375 1.03437 0
0 1.025 0
2.9 1.1 0
2.7875 1.0875 0
2.675 1.075 0
2.9125 0.9625 0
2.79844 0.951563 0
2.68438 0.940625 0
2.925 0.825 0
2.80938 0.815625 0
2.69375 0.80625 0
2.675 1.075 0
2.5625 1.0625 0
2.45 1.05 0
2.68438 0.940625 0
2.57031 0.929688 0
2.45625 0.91875 0
2.69375 0.80625 0
2.57812 0.796875 0
2.4625 0.7875 0
2.925 0.825 0
2.80938 0.815625 0
2.69375 0.80625 0
2.9375 0.6875 0
2.82031 0.679688 0
2.70312 0.671875 0
2.95 0.55 0
2.83125 0.54375 0
2.7125 0.5375 0
2.69375 0.80625 0
2.57812 0.796875 0
2.4625 0.7875 0
2.70312 0.671875 0
2.58594 0.664062 0
2.46875 0.65625 0
2.7125 0.5375 0
2.59375 0.53125 0
2.475 0.525 0
2.45 1.05 0
2.3375 1.0375 0
2.225 1.025 0
2.45625 0.91875 0
2.34219 0.907813 0
2.22813 0.896875 0
2.4625 0.7875 0
2.34688 0.778125 0
2.23125 0.76875 0
2.225 1.025 0
2.1125 1.0125 0
2 1 0
2.22813 0.896875 0
2.11406 0.885938 0
2 0.875 0
2.23125 0.76875 0
2.11563 0.759375 0
2 0.75 0
2.4625 0.7875 0
2.34688 0.778125 0
2.23125 0.76875 0
2.46875 0.65625 0
2.35156 0.648438 0
2.23438 0.640625 0
2.475 0.525 0
2.35625 0.51875 0
2.2375 0.5125 0
2.23125 0.76875 0
2.11563 0.759375 0
2 0.75 0
2.23438 0.640625 0
2.11719 0.632812 0
2 0.625 0
2.2375 0.5125 0
2.11875 0.50625 0
2 0.5 0
2.95 0.55 0
2.83125 0.54375 0
2.7125 0.5375 0
2.9625 0.4125 0
2.84219 0.407813 0
2.72188 0.403125 0
2.975 0.275 0
2.85313 0.271875 0
2.73125 0.26875 0
2.7125 0.5375 0
2.59375 0.53125 0
2.475 0.525 0
2.72188 0.403125 0
2.60156 0.398438 0
2.48125 0.39375 0
2.73125 0.26875 0
2.60938 0.265625 0
2.4875 0.2625 0
2.975 0.275 0
2.85313 0.271875 0
2.73125 0.26875 0
2.9875 0.1375 0
2.86406 0.135938 0
2.74063 0.134375 0
3 0 0
2.875 0 0
2.75 0 0
2.73125 0.26875 0
2.60938 0.265625 0
2.4875 0.2625 0
2.74063 0.134375 0
2.61719 0.132812 0
2.49375 0.13125 0
2.75 0 0
2.625 0 0
2.5 0 0
2.475 0.525 0
2.35625 0.51875 0
2.2375 0.5125 0
2.48125 0.39375 0
2.36094 0.389063 0
2.24062 0.384375 0
2.4875 0.2625 0
2.36562 0.259375 0
2.24375 0.25625 0
2.2375 0.5125 0
2.11875 0.50625 0
2 0.5 0
2.24062 0.384375 0
2.12031 0.379687 0
2 0.375 0
2.24375 0.25625 0
2.12188 0.253125 0
2 0.25 0
2.4875 0.2625 0
2.36562 0.259375 0
2.24375 0.25625 0
2.49375 0.13125 0
2.37031 0.129688 0
2.24688 0.128125 0
2.5 0 0
2.375 0 0
2.25 0 0
2.24375 0.25625 0
2.12188 0.253125 0
2 0.25 0
2.24688 0.128125 0
2.12344 0.126562 0
2 0.125 0
2.25 0 0
2.125 0 0
2 0 0
4 1 0
3.8625 1.0125 0
3.725 1.025 0
4 0.875 0
3.86406 0.885938 0
3.72813 0.896875 0
4 0.75 0
3.86563 0.759375 0
3.73125 0.76875 0
3.725 1.025 0
3.5875 1.0375 0
3.45 1.05 0
3.72813 0.896875 0
3.59219 0.907813 0
3.45625 0.91875 0
3.73125 0.76875 0
3.59688 0.778125 0
3.4625 0.7875 0
4 0.75 0
3.86563 0.759375 0
3.73125 0.76875 0
4 0.625 0
[...]
POINT_DATA 8640
VECTORS v double
1.22248 -0.242772 0
1.20571 -0.201281 0
1.18339 -0.16003 0
1.14997 -0.216013 0
1.12395 -0.180708 0
1.10001 -0.149499 0
1.06341 -0.187755 0
1.0335 -0.158745 0
1.00495 -0.131847 0
1.18339 -0.16003 0
1.17348 -0.130398 0
1.15926 -0.0996864 0
1.10001 -0.149499 0
1.08215 -0.120972 0
1.0664 -0.095763 0
1.00495 -0.131847 0
0.982264 -0.107398 0
0.962324 -0.0851951 0
1.06341 -0.187755 0
1.0335 -0.158745 0
1.00495 -0.131847 0
0.951657 -0.146271 0
0.917923 -0.125377 0
0.887293 -0.106329 0
0.817662 -0.113668 0
0.784959 -0.0985971 0
0.754703 -0.0843773 0
1.00495 -0.131847 0
0.982264 -0.107398 0
0.962324 -0.0851951 0
0.887293 -0.106329 0
0.862048 -0.0880677 0
0.840381 -0.0708037 0
0.754703 -0.0843773 0
0.729135 -0.070359 0
0.706996 -0.0569893 0
1.15926 -0.0996864 0
1.15148 -0.0758229 0
1.14049 -0.0495455 0
1.0664 -0.095763 0
1.05352 -0.0721192 0
1.04273 -0.0487438 0
0.962324 -0.0851951 0
0.946237 -0.0638215 0
0.933607 -0.0431554 0
1.14049 -0.0495455 0
1.13358 -0.0261899 0
1.125 0 0
1.04273 -0.0487438 0
1.03288 -0.0247537 0
1.02539 0 0
0.933607 -0.0431554 0
0.921822 -0.0217522 0
0.914062 0 0
0.962324 -0.0851951 0
0.946237 -0.0638215 0
0.933607 -0.0431554 0
0.840381 -0.0708037 0
0.823062 -0.0535064 0
0.809843 -0.0368257 0
0.706996 -0.0569893 0
0.689028 -0.0435087 0
0.67528 -0.0302841 0
0.933607 -0.0431554 0
0.921822 -0.0217522 0
0.914062 0 0
0.809843 -0.0368257 0
0.798277 -0.0189776 0
0.791016 0 0
0.67528 -0.0302841 0
0.663416 -0.0157993 0
0.65625 0 0
0.817662 -0.113668 0
0.784959 -0.0985971 0
0.754703 -0.0843773 0
0.668429 -0.0761826 0
0.636009 -0.0662669 0
0.605876 -0.0568629 0
0.495768 -0.0450048 0
0.466336 -0.0395157 0
0.439122 -0.0343491 0
0.754703 -0.0843773 0
0.729135 -0.070359 0
0.706996 -0.0569893 0
0.605876 -0.0568629 0
0.58041 -0.047713 0
0.558274 -0.0389801 0
0.439122 -0.0343491 0
0.415928 -0.0292871 0
0.395852 -0.0244835 0
0.495768 -0.0450048 0
0.466336 -0.0395157 0
0.439122 -0.0343491 0
0.292717 -0.0135738 0
0.269844 -0.0117668 0
0.249249 -0.010193 0
0 0 0
0 0 0
0 0 0
0.439122 -0.0343491 0
0.415928 -0.0292871 0
0.395852 -0.0244835 0
0.249249 -0.010193 0
0.231044 -0.0086033 0
0.215741 -0.00719913 0
0 0 0
0 0 0
0 0 0
0.706996 -0.0569893 0
0.689028 -0.0435087 0
0.67528 -0.0302841 0
0.558274 -0.0389801 0
0.540292 -0.0298691 0
0.526708 -0.0207912 0
0.395852 -0.0244835 0
0.379248 -0.0193495 0
0.36681 -0.0142235 0
0.67528 -0.0302841 0
0.663416 -0.0157993 0
0.65625 0 0
0.526708 -0.0207912 0
0.515729 -0.0107144 0
0.509766 0 0
0.36681 -0.0142235 0
0.356784 -0.00809892 0
0.351562 0 0
0.395852 -0.0244835 0
0.379248 -0.0193495 0
0.36681 -0.0142235 0
0.215741 -0.00719913 0
0.202446 -0.0054887 0
0.193061 -0.0039129 0
0 0 0
0 0 0
0 0 0
0.36681 -0.0142235 0
0.356784 -0.00809892 0
0.351562 0 0
0.193061 -0.0039129 0
0.185082 -0.00195943 0
0.181641 0 0
0 0 0
0 0 0
0 0 0
1.65924 -0.339837 0
1.59478 -0.381448 0
1.51622 -0.400255 0
1.51098 -0.26195 0
1.45822 -0.295656 0
1.39365 -0.314709 0
1.37321 -0.20521 0
1.33219 -0.237182 0
1.28815 -0.257532 0
1.51622 -0.400255 0
1.4469 -0.395282 0
1.37205 -0.376809 0
1.39365 -0.314709 0
1.33925 -0.319765 0
1.27864 -0.312853 0
1.28815 -0.257532 0
1.2428 -0.265064 0
1.19498 -0.261553 0
1.37321 -0.20521 0
1.33219 -0.237182 0
1.28815 -0.257532 0
1.24807 -0.157396 0
1.21148 -0.175951 0
1.1701 -0.188224 0
1.08332 -0.105956 0
1.04866 -0.121954 0
1.01118 -0.133557 0
1.28815 -0.257532 0
1.2428 -0.265064 0
1.19498 -0.261553 0
1.1701 -0.188224 0
1.12728 -0.193305 0
1.08218 -0.191758 0
1.01118 -0.133557 0
0.974519 -0.140498 0
0.936105 -0.14223 0
1.37205 -0.376809 0
1.32292 -0.349306 0
1.27517 -0.313964 0
1.27864 -0.312853 0
1.23945 -0.295204 0
1.19781 -0.271664 0
1.19498 -0.261553 0
1.15668 -0.249175 0
1.11865 -0.231065 0
1.27517 -0.313964 0
1.24916 -0.28011 0
1.22248 -0.242772 0
1.19781 -0.271664 0
1.17361 -0.244055 0
1.14997 -0.216013 0
1.11865 -0.231065 0
1.09051 -0.210063 0
1.06341 -0.187755 0
1.19498 -0.261553 0
1.15668 -0.249175 0
1.11865 -0.231065 0
1.08218 -0.191758 0
1.04481 -0.184849 0
1.00792 -0.174336 0
0.936105 -0.14223 0
0.903519 -0.139485 0
0.870884 -0.133393 0
1.11865 -0.231065 0
1.09051 -0.210063 0
1.06341 -0.187755 0
1.00792 -0.174336 0
0.978809 -0.161276 0
0.951657 -0.146271 0
0.870884 -0.133393 0
0.843773 -0.124506 0
0.817662 -0.113668 0
1.08332 -0.105956 0
1.04866 -0.121954 0
1.01118 -0.133557 0
0.924697 -0.0748675 0
0.894551 -0.0853016 0
0.860002 -0.0926292 0
0.74378 -0.0366883 0
0.714437 -0.0436981 0
0.680644 -0.0489936 0
1.01118 -0.133557 0
0.974519 -0.140498 0
0.936105 -0.14223 0
0.860002 -0.0926292 0
0.826141 -0.0963053 0
0.78905 -0.0965261 0
0.680644 -0.0489936 0
0.647768 -0.0522261 0
0.612151 -0.0534556 0
0.74378 -0.0366883 0
0.714437 -0.0436981 0
0.680644 -0.0489936 0
0.470239 -0.0110633 0
0.45413 -0.0135123 0
0.431153 -0.0153817 0
0 0 0
0 0 0
0 0 0
0.680644 -0.0489936 0
0.647768 -0.0522261 0
0.612151 -0.0534556 0
0.431153 -0.0153817 0
0.409564 -0.0165079 0
0.383087 -0.0167743 0
0 0 0
0 0 0
0 0 0
0.936105 -0.14223 0
0.903519 -0.139485 0
0.870884 -0.133393 0
0.78905 -0.0965261 0
0.756835 -0.0938994 0
0.723603 -0.0892574 0
0.612151 -0.0534556 0
0.580919 -0.0529563 0
0.548973 -0.0512756 0
0.870884 -0.133393 0
0.843773 -0.124506 0
0.817662 -0.113668 0
0.723603 -0.0892574 0
0.695636 -0.0833461 0
0.668429 -0.0761826 0
0.548973 -0.0512756 0
0.521972 -0.0486516 0
0.495768 -0.0450048 0
0.612151 -0.0534556 0
0.580919 -0.0529563 0
0.548973 -0.0512756 0
0.383087 -0.0167743 0
0.360187 -0.0165837 0
0.335251 -0.0158028 0
0 0 0
0 0 0
0 0 0
0.548973 -0.0512756 0
0.521972 -0.0486516 0
0.495768 -0.0450048 0
0.335251 -0.0158028 0
0.313862 -0.0149365 0
0.292717 -0.0135738 0
0 0 0
0 0 0
0 0 0
1.25107 0.0350424 0
1.32288 0.0293984 0
1.37939 0.0221943 0
1.25876 -0.0385543 0
1.32387 -0.0273547 0
1.37885 -0.0191022 0
1.24699 -0.102674 0
1.30919 -0.0765631 0
1.36202 -0.0570781 0
1.37939 0.0221943 0
1.42039 0.0158231 0
1.45066 0.00961681 0
1.37885 -0.0191022 0
1.41681 -0.0160852 0
1.44717 -0.0136988 0
1.36202 -0.0570781 0
1.39877 -0.0451756 0
1.42858 -0.0353491 0
1.24699 -0.102674 0
1.30919 -0.0765631 0
1.36202 -0.0570781 0
1.2635 -0.175635 0
1.31233 -0.131984 0
1.35474 -0.0989324 0
1.27356 -0.208311 0
1.30621 -0.160146 0
1.33598 -0.122021 0
1.36202 -0.0570781 0
1.39877 -0.0451756 0
1.42858 -0.0353491 0
1.35474 -0.0989324 0
1.38418 -0.0774033 0
1.40906 -0.0594468 0
1.33598 -0.122021 0
1.35762 -0.0960789 0
1.37703 -0.0732418 0
1.45066 0.00961681 0
1.47318 0.00515223 0
1.48718 0.00169672 0
1.44717 -0.0136988 0
1.46798 -0.0121831 0
1.48235 -0.00930795 0
1.42858 -0.0353491 0
1.44941 -0.0274573 0
1.46445 -0.0189633 0
1.48718 0.00169672 0
1.49741 0.000232583 0
1.5 0 0
1.48235 -0.00930795 0
1.49108 -0.0052421 0
1.49414 0 0
1.46445 -0.0189633 0
1.47325 -0.0100411 0
1.47656 0 0
1.42858 -0.0353491 0
1.44941 -0.0274573 0
1.46445 -0.0189633 0
1.40906 -0.0594468 0
1.42574 -0.0452577 0
1.43859 -0.0307664 0
1.37703 -0.0732418 0
1.38967 -0.0549435 0
1.40034 -0.0365235 0
1.46445 -0.0189633 0
1.47325 -0.0100411 0
1.47656 0 0
1.43859 -0.0307664 0
1.44469 -0.0162453 0
1.44727 0 0
1.40034 -0.0365235 0
1.40433 -0.0190618 0
1.40625 0 0
1.27356 -0.208311 0
1.30621 -0.160146 0
1.33598 -0.122021 0
1.27221 -0.247106 0
1.29375 -0.194064 0
1.31089 -0.149895 0
1.274 -0.254876 0
1.27885 -0.2027 0
1.28093 -0.158227 0
1.33598 -0.122021 0
1.35762 -0.0960789 0
1.37703 -0.0732418 0
1.31089 -0.149895 0
1.32567 -0.119222 0
1.33753 -0.0908468 0
1.28093 -0.158227 0
1.28585 -0.12602 0
1.28932 -0.0959226 0
1.274 -0.254876 0
1.27885 -0.2027 0
1.28093 -0.158227 0
1.24909 -0.254837 0
1.24533 -0.210379 0
1.23431 -0.165296 0
1.22248 -0.242772 0
1.20571 -0.201281 0
1.18339 -0.16003 0
1.28093 -0.158227 0
1.28585 -0.12602 0
1.28932 -0.0959226 0
1.23431 -0.165296 0
1.23334 -0.134782 0
1.22793 -0.102451 0
1.18339 -0.16003 0
1.17348 -0.130398 0
1.15926 -0.0996864 0
1.37703 -0.0732418 0
1.38967 -0.0549435 0
1.40034 -0.0365235 0
1.33753 -0.0908468 0
1.34573 -0.0683982 0
1.35178 -0.045715 0
1.28932 -0.0959226 0
1.29131 -0.0718576 0
1.2924 -0.0473114 0
1.40034 -0.0365235 0
1.40433 -0.0190618 0
1.40625 0 0
1.35178 -0.045715 0
1.35354 -0.0244816 0
1.35352 0 0
1.2924 -0.0473114 0
1.29092 -0.0247591 0
1.28906 0 0
1.28932 -0.0959226 0
1.29131 -0.0718576 0
1.2924 -0.0473114 0
1.22793 -0.102451 0
1.22605 -0.0782758 0
1.22127 -0.0513269 0
1.15926 -0.0996864 0
1.15148 -0.0758229 0
1.14049 -0.0495455 0
1.2924 -0.0473114 0
1.29092 -0.0247591 0
1.28906 0 0
1.22127 -0.0513269 0
1.21793 -0.0277526 0
1.21289 0 0
1.14049 -0.0495455 0
1.13358 -0.0261899 0
1.125 0 0
1.58911 0.228568 0
1.70521 0.16406 0
1.78958 0.107555 0
1.61105 0.099176 0
1.65954 0.0957632 0
1.70282 0.0621602 0
1.48988 0.0836365 0
1.49833 0.0759099 0
1.52299 0.0547572 0
1.78958 0.107555 0
1.84075 0.0165976 0
1.8625 -0.0594982 0
1.70282 0.0621602 0
1.71629 0.0110078 0
1.71617 -0.0527267 0
1.52299 0.0547572 0
1.52179 0.0143989 0
1.52705 -0.0323531 0
1.48988 0.0836365 0
1.49833 0.0759099 0
1.52299 0.0547572 0
1.36027 0.0223184 0
1.36972 0.0161048 0
1.38393 0.000798632 0
1.26923 0.0142034 0
1.26156 0.0118586 0
1.26096 0.00444888 0
1.52299 0.0547572 0
1.52179 0.0143989 0
1.52705 -0.0323531 0
1.38393 0.000798632 0
1.38373 -0.0221269 0
1.3812 -0.049815 0
1.26096 0.00444888 0
1.24506 -0.0105727 0
1.23202 -0.0289154 0
1.8625 -0.0594982 0
1.85185 -0.147237 0
1.80724 -0.222134 0
1.71617 -0.0527267 0
1.68617 -0.119232 0
1.63843 -0.177425 0
1.52705 -0.0323531 0
1.50055 -0.083164 0
1.47475 -0.13039 0
1.80724 -0.222134 0
1.73686 -0.284412 0
1.65924 -0.339837 0
1.63843 -0.177425 0
1.58383 -0.226287 0
1.51098 -0.26195 0
1.47475 -0.13039 0
1.42345 -0.17024 0
1.37321 -0.20521 0
1.52705 -0.0323531 0
1.50055 -0.083164 0
1.47475 -0.13039 0
1.3812 -0.049815 0
1.36045 -0.0803307 0
1.334 -0.110088 0
1.23202 -0.0289154 0
1.20325 -0.0507085 0
1.17316 -0.0718163 0
1.47475 -0.13039 0
1.42345 -0.17024 0
1.37321 -0.20521 0
1.334 -0.110088 0
1.29426 -0.136979 0
1.24807 -0.157396 0
1.17316 -0.0718163 0
1.13024 -0.0907254 0
1.08332 -0.105956 0
1.26923 0.0142034 0
1.26156 0.0118586 0
1.26096 0.00444888 0
1.10426 0.0143616 0
1.09304 0.010896 0
1.08525 0.00401072 0
0.897142 0.0191797 0
0.890014 0.0171975 0
0.884519 0.013344 0
1.26096 0.00444888 0
1.24506 -0.0105727 0
1.23202 -0.0289154 0
1.08525 0.00401072 0
1.06981 -0.00735337 0
1.05405 -0.020673 0
0.884519 0.013344 0
0.871723 0.00653988 0
0.857832 -0.00161385 0
0.897142 0.0191797 0
0.890014 0.0171975 0
0.884519 0.013344 0
0.521694 0.00756898 0
0.524795 0.00691165 0
0.531316 0.00585742 0
0 0 0
0 0 0
0 0 0
0.884519 0.013344 0
0.871723 0.00653988 0
0.857832 -0.00161385 0
0.531316 0.00585742 0
0.531203 0.00382197 0
0.530608 0.00122924 0
0 0 0
0 0 0
0 0 0
1.23202 -0.0289154 0
1.20325 -0.0507085 0
1.17316 -0.0718163 0
1.05405 -0.020673 0
1.02868 -0.035854 0
0.999969 -0.0503467 0
0.857832 -0.00161385 0
0.835824 -0.0113141 0
0.810808 -0.0208439 0
1.17316 -0.0718163 0
1.13024 -0.0907254 0
1.08332 -0.105956 0
0.999969 -0.0503467 0
0.964407 -0.0637141 0
0.924697 -0.0748675 0
0.810808 -0.0208439 0
0.779517 -0.0296288 0
0.74378 -0.0366883 0
0.857832 -0.00161385 0
0.835824 -0.0113141 0
0.810808 -0.0208439 0
0.530608 0.00122924 0
0.5229 -0.00177621 0
0.510842 -0.00516006 0
0 0 0
0 0 0
0 0 0
0.810808 -0.0208439 0
0.779517 -0.0296288 0
0.74378 -0.0366883 0
0.510842 -0.00516006 0
0.493765 -0.00822655 0
0.470239 -0.0110633 0
0 0 0
0 0 0
0 0 0
1.80229 -0.16824 0
1.6794 -0.227084 0
1.59392 -0.244346 0
1.7856 -0.0449608 0
1.69328 -0.109289 0
1.59911 -0.156952 0
1.62141 -0.00236826 0
1.59893 -0.0595219 0
1.57011 -0.104844 0
1.59392 -0.244346 0
1.49674 -0.186663 0
1.42241 -0.100081 0
1.59911 -0.156952 0
1.51459 -0.156869 0
1.45171 -0.125606 0
1.57011 -0.104844 0
1.5266 -0.108761 0
1.48791 -0.0854698 0
1.62141 -0.00236826 0
1.59893 -0.0595219 0
1.57011 -0.104844 0
1.49216 0.0216795 0
1.46467 -0.00986451 0
1.43382 -0.0352188 0
1.30904 0.0409209 0
1.29852 0.0147835 0
1.28618 -0.00804002 0
1.57011 -0.104844 0
1.5266 -0.108761 0
1.48791 -0.0854698 0
1.43382 -0.0352188 0
1.3914 -0.0384631 0
1.35598 -0.0360124 0
1.28618 -0.00804002 0
1.27164 -0.0184037 0
1.26556 -0.0220517 0
1.42241 -0.100081 0
1.37897 0.00518332 0
1.37911 0.0865738 0
1.45171 -0.125606 0
1.4562 -0.0519503 0
1.48317 0.0165745 0
1.48791 -0.0854698 0
1.44523 -0.0357136 0
1.42938 0.0107914 0
1.37911 0.0865738 0
1.47518 0.172181 0
1.58911 0.228568 0
1.48317 0.0165745 0
1.53834 0.0733772 0
1.61105 0.099176 0
1.42938 0.0107914 0
1.44656 0.0554672 0
1.48988 0.0836365 0
1.48791 -0.0854698 0
1.44523 -0.0357136 0
1.42938 0.0107914 0
1.35598 -0.0360124 0
1.33183 -0.0203277 0
1.32537 -0.00316778 0
1.26556 -0.0220517 0
1.25503 -0.0140465 0
1.25469 -0.00337868 0
1.42938 0.0107914 0
1.44656 0.0554672 0
1.48988 0.0836365 0
1.32537 -0.00316778 0
1.33425 0.0149417 0
1.36027 0.0223184 0
1.25469 -0.00337868 0
1.2564 0.00850452 0
1.26923 0.0142034 0
1.30904 0.0409209 0
1.29852 0.0147835 0
1.28618 -0.00804002 0
1.10599 0.0369393 0
1.11702 0.0234765 0
1.12266 0.0121711 0
0.789125 0.0279937 0
0.816491 0.0220229 0
0.836101 0.0166682 0
1.28618 -0.00804002 0
1.27164 -0.0184037 0
1.26556 -0.0220517 0
1.12266 0.0121711 0
1.11755 0.00710559 0
1.11249 0.00505131 0
0.836101 0.0166682 0
0.849663 0.0134756 0
0.861043 0.0116998 0
0.789125 0.0279937 0
0.816491 0.0220229 0
0.836101 0.0166682 0
0.411313 0.00395755 0
0.421602 0.00416806 0
0.438466 0.00400608 0
0 0 0
0 0 0
0 0 0
0.836101 0.0166682 0
0.849663 0.0134756 0
0.861043 0.0116998 0
0.438466 0.00400608 0
0.449036 0.00432555 0
0.463625 0.00454109 0
0 0 0
0 0 0
0 0 0
1.26556 -0.0220517 0
1.25503 -0.0140465 0
1.25469 -0.00337868 0
1.11249 0.00505131 0
1.10427 0.00692661 0
1.10153 0.0104424 0
0.861043 0.0116998 0
0.870075 0.0129191 0
0.879993 0.0152326 0
1.25469 -0.00337868 0
1.2564 0.00850452 0
1.26923 0.0142034 0
1.10153 0.0104424 0
1.09944 0.0136879 0
1.10426 0.0143616 0
0.879993 0.0152326 0
0.887752 0.0182261 0
0.897142 0.0191797 0
0.861043 0.0116998 0
0.870075 0.0129191 0
0.879993 0.0152326 0
0.463625 0.00454109 0
0.474098 0.00536255 0
0.490461 0.00634479 0
0 0 0
0 0 0
0 0 0
0.879993 0.0152326 0
0.887752 0.0182261 0
0.897142 0.0191797 0
0.490461 0.00634479 0
0.503009 0.00689637 0
0.521694 0.00756898 0
0 0 0
0 0 0
0 0 0
0.886194 -1.26159 0
0.82445 -1.42962 0
0.775637 -1.46167 0
0.776302 -1.19358 0
0.645319 -1.33269 0
0.50774 -1.36795 0
0.740602 -1.11347 0
0.493805 -1.17718 0
0.339092 -1.26042 0
0.775637 -1.46167 0
0.64037 -1.36336 0
0.608313 -0.899647 0
0.50774 -1.36795 0
0.3402 -1.15639 0
0.26874 -0.585195 0
0.339092 -1.26042 0
0.107751 -0.99581 0
-0.0249767 -0.447595 0
0.740602 -1.11347 0
0.493805 -1.17718 0
0.339092 -1.26042 0
0.720097 -0.942656 0
0.438802 -0.949831 0
0.254772 -1.08921 0
0.701988 -0.760758 0
0.489313 -0.683487 0
0.213307 -0.805558 0
0.339092 -1.26042 0
0.107751 -0.99581 0
-0.0249767 -0.447595 0
0.254772 -1.08921 0
-0.0222881 -0.715224 0
-0.176481 -0.204703 0
0.213307 -0.805558 0
-0.0376301 -0.511557 0
-0.178104 -0.0552231 0
0.608313 -0.899647 0
0.365813 -0.379795 0
0.27748 0.143799 0
0.26874 -0.585195 0
0.0153848 -0.150621 0
-0.151053 0.270826 0
-0.0249767 -0.447595 0
-0.306617 -0.0680808 0
-0.495169 0.468485 0
0.27748 0.143799 0
0.077169 0.587219 0
-0.167516 0.942975 0
-0.151053 0.270826 0
-0.291587 0.773035 0
-0.445222 1.07218 0
-0.495169 0.468485 0
-0.560301 0.92592 0
-0.619434 1.12719 0
-0.0249767 -0.447595 0
-0.306617 -0.0680808 0
-0.495169 0.468485 0
-0.176481 -0.204703 0
-0.398045 0.243593 0
-0.510207 0.682867 0
-0.178104 -0.0552231 0
-0.299928 0.21562 0
-0.389406 0.541766 0
-0.495169 0.468485 0
-0.560301 0.92592 0
-0.619434 1.12719 0
-0.510207 0.682867 0
-0.607779 1.00837 0
-0.48256 1.11092 0
-0.389406 0.541766 0
-0.256664 0.932384 0
0.0638142 0.915963 0
0.701988 -0.760758 0
0.489313 -0.683487 0
0.213307 -0.805558 0
0.72686 -0.667049 0
0.522109 -0.573003 0
0.272038 -0.633373 0
1.037 -0.479684 0
0.864429 -0.407852 0
0.609527 -0.364023 0
0.213307 -0.805558 0
-0.0376301 -0.511557 0
-0.178104 -0.0552231 0
0.272038 -0.633373 0
0.130162 -0.319039 0
0.00679604 0.018612 0
0.609527 -0.364023 0
0.568666 -0.108043 0
0.482354 0.0585546 0
1.037 -0.479684 0
0.864429 -0.407852 0
0.609527 -0.364023 0
1.42423 -0.272895 0
1.26742 -0.308389 0
1.08813 -0.329069 0
1.80229 -0.16824 0
1.6794 -0.227084 0
1.59392 -0.244346 0
0.609527 -0.364023 0
0.568666 -0.108043 0
0.482354 0.0585546 0
1.08813 -0.329069 0
1.05718 -0.242838 0
1.04027 -0.153344 0
1.59392 -0.244346 0
1.49674 -0.186663 0
1.42241 -0.100081 0
-0.178104 -0.0552231 0
-0.299928 0.21562 0
-0.389406 0.541766 0
0.00679604 0.018612 0
0.0323691 0.290771 0
0.189663 0.648916 0
0.482354 0.0585546 0
0.675282 0.231949 0
0.803434 0.282237 0
-0.389406 0.541766 0
-0.256664 0.932384 0
0.0638142 0.915963 0
0.189663 0.648916 0
0.464853 0.75839 0
0.647993 0.715158 0
0.803434 0.282237 0
1.07308 0.44949 0
1.30021 0.514266 0
0.482354 0.0585546 0
0.675282 0.231949 0
0.803434 0.282237 0
1.04027 -0.153344 0
1.16327 -0.0040684 0
1.28558 0.171077 0
1.42241 -0.100081 0
1.37897 0.00518332 0
1.37911 0.0865738 0
0.803434 0.282237 0
1.07308 0.44949 0
1.30021 0.514266 0
1.28558 0.171077 0
1.42827 0.297468 0
1.60234 0.368242 0
1.37911 0.0865738 0
1.47518 0.172181 0
1.58911 0.228568 0
1.17357 -0.484042 0
1.33743 -0.564829 0
1.53995 -0.621403 0
1.24957 -0.636532 0
1.45598 -0.733057 0
1.62018 -0.789036 0
1.32188 -0.79308 0
1.50283 -0.868949 0
1.5741 -0.902703 0
1.53995 -0.621403 0
1.74954 -0.645763 0
1.89275 -0.606108 0
1.62018 -0.789036 0
1.73586 -0.784416 0
1.82971 -0.759893 0
1.5741 -0.902703 0
1.74169 -0.925485 0
2.00115 -0.933475 0
1.32188 -0.79308 0
1.50283 -0.868949 0
1.5741 -0.902703 0
1.31725 -0.936332 0
1.44422 -0.942164 0
1.53772 -1.04807 0
1.25678 -0.989279 0
1.39799 -1.053 0
1.58827 -1.26957 0
1.5741 -0.902703 0
1.74169 -0.925485 0
2.00115 -0.933475 0
1.53772 -1.04807 0
1.85787 -1.14801 0
2.05703 -1.09796 0
1.58827 -1.26957 0
1.81964 -1.30195 0
1.79812 -1.12552 0
1.89275 -0.606108 0
1.94994 -0.526214 0
2.00594 -0.431655 0
1.82971 -0.759893 0
2.02075 -0.707776 0
2.19749 -0.597334 0
2.00115 -0.933475 0
2.25693 -0.812994 0
2.3023 -0.607455 0
2.00594 -0.431655 0
2.07051 -0.322571 0
2.12508 -0.194784 0
2.19749 -0.597334 0
2.28989 -0.424673 0
2.30295 -0.221822 0
2.3023 -0.607455 0
2.17535 -0.370743 0
1.92152 -0.14432 0
2.00115 -0.933475 0
2.25693 -0.812994 0
2.3023 -0.607455 0
2.05703 -1.09796 0
2.03535 -0.875757 0
1.8728 -0.574387 0
1.79812 -1.12552 0
1.68484 -0.858824 0
1.53922 -0.442922 0
2.3023 -0.607455 0
2.17535 -0.370743 0
1.92152 -0.14432 0
1.8728 -0.574387 0
1.61586 -0.215805 0
1.29997 0.0666211 0
1.53922 -0.442922 0
1.26945 -0.0360557 0
0.977526 0.323207 0
1.25678 -0.989279 0
1.39799 -1.053 0
1.58827 -1.26957 0
1.16495 -1.08134 0
1.338 -1.27908 0
1.48066 -1.44455 0
1.08707 -1.18593 0
1.20676 -1.43776 0
1.28991 -1.51979 0
1.58827 -1.26957 0
1.81964 -1.30195 0
1.79812 -1.12552 0
1.48066 -1.44455 0
1.53244 -1.357 0
1.53046 -1.13407 0
1.28991 -1.51979 0
1.27703 -1.4161 0
1.31849 -1.09499 0
1.08707 -1.18593 0
1.20676 -1.43776 0
1.28991 -1.51979 0
0.977613 -1.24644 0
1.02376 -1.46602 0
1.03923 -1.48541 0
0.886194 -1.26159 0
0.82445 -1.42962 0
0.775637 -1.46167 0
1.28991 -1.51979 0
1.27703 -1.4161 0
1.31849 -1.09499 0
1.03923 -1.48541 0
0.974023 -1.3766 0
0.924105 -0.954321 0
0.775637 -1.46167 0
0.64037 -1.36336 0
0.608313 -0.899647 0
1.79812 -1.12552 0
1.68484 -0.858824 0
1.53922 -0.442922 0
1.53046 -1.13407 0
1.44907 -0.736279 0
1.27035 -0.208911 0
1.31849 -1.09499 0
1.044 -0.532082 0
0.842778 -0.0363047 0
1.53922 -0.442922 0
1.26945 -0.0360557 0
0.977526 0.323207 0
1.27035 -0.208911 0
1.04748 0.126123 0
0.799799 0.502693 0
0.842778 -0.0363047 0
0.637661 0.304704 0
0.416875 0.716115 0
1.31849 -1.09499 0
1.044 -0.532082 0
0.842778 -0.0363047 0
0.924105 -0.954321 0
0.632489 -0.446586 0
0.553317 0.00904664 0
0.608313 -0.899647 0
0.365813 -0.379795 0
0.27748 0.143799 0
0.842778 -0.0363047 0
0.637661 0.304704 0
0.416875 0.716115 0
0.553317 0.00904664 0
0.352494 0.382227 0
0.108425 0.758045 0
0.27748 0.143799 0
0.077169 0.587219 0
-0.167516 0.942975 0
0 0 0
0 0 0
0 0 0
0.169926 -0.0205024 0
0.22231 -0.0232948 0
0.255461 -0.0251074 0
0.426577 -0.048242 0
0.480755 -0.0632696 0