# vtk DataFile Version 3.0
#This file was generated by the deal.II library on 2025/1/4 at 10:07:54
ASCII
DATASET UNSTRUCTURED_GRID

POINTS 8640 double
1.1 1.1 0
0.9625 1.09063 0
0.825 1.08125 0
1.0875 0.9625 0
0.951563 0.954297 0
0.815625 0.946094 0
1.075 0.825 0
0.940625 0.817969 0
0.80625 0.810937 0
0.825 1.08125 0
0.6875 1.07187 0
0.55 1.0625 0
0.815625 0.946094 0
0.679688 0.937891 0
0.54375 0.929688 0
0.80625 0.810937 0
0.671875 0.803906 0
0.5375 0.796875 0
1.075 0.825 0
0.940625 0.817969 0
0.80625 0.810937 0
1.0625 0.6875 0
0.929688 0.681641 0
0.796875 0.675781 0
1.05 0.55 0
0.91875 0.545313 0
0.7875 0.540625 0
0.80625 0.810937 0
0.671875 0.803906 0
0.5375 0.796875 0
0.796875 0.675781 0
0.664062 0.669922 0
0.53125 0.664062 0
0.7875 0.540625 0
0.65625 0.535937 0
0.525 0.53125 0
0.55 1.0625 0
0.4125 1.05313 0
0.275 1.04375 0
0.54375 0.929688 0
0.407813 0.921484 0
0.271875 0.913281 0
0.5375 0.796875 0
0.403125 0.789844 0
0.26875 0.782813 0
0.275 1.04375 0
0.1375 1.03437 0
0 1.025 0
0.271875 0.913281 0
0.135938 0.905078 0
0 0.896875 0
0.26875 0.782813 0
0.134375 0.775781 0
0 0.76875 0
0.5375 0.796875 0
0.403125 0.789844 0
0.26875 0.782813 0
0.53125 0.664062 0
0.398438 0.658203 0
0.265625 0.652344 0
0.525 0.53125 0
0.39375 0.526563 0
0.2625 0.521875 0
0.26875 0.782813 0
0.134375 0.775781 0
0 0.76875 0
0.265625 0.652344 0
0.132812 0.646484 0
0 0.640625 0
0.2625 0.521875 0
0.13125 0.517187 0
0 0.5125 0
1.05 0.55 0
0.91875 0.545313 0
0.7875 0.540625 0
1.0375 0.4125 0
0.907812 0.408984 0
0.778125 0.405469 0
1.025 0.275 0
0.896875 0.272656 0
0.76875 0.270313 0
0.7875 0.540625 0
0.65625 0.535937 0
0.525 0.53125 0
0.778125 0.405469 0
0.648438 0.401953 0
0.51875 0.398438 0
0.76875 0.270313 0
0.640625 0.267969 0
0.5125 0.265625 0
1.025 0.275 0
0.896875 0.272656 0
0.76875 0.270313 0
1.0125 0.1375 0
0.885937 0.136328 0
0.759375 0.135156 0
1 0 0
0.875 0 0
0.75 0 0
0.76875 0.270313 0
0.640625 0.267969 0
0.5125 0.265625 0
0.759375 0.135156 0
0.632812 0.133984 0
0.50625 0.132812 0
0.75 0 0
0.625 0 0
0.5 0 0
0.525 0.53125 0
0.39375 0.526563 0
0.2625 0.521875 0
0.51875 0.398438 0
0.389062 0.394922 0
0.259375 0.391406 0
0.5125 0.265625 0
0.384375 0.263281 0
0.25625 0.260937 0
0.2625 0.521875 0
0.13125 0.517187 0
0 0.5125 0
0.259375 0.391406 0
0.129688 0.387891 0
0 0.384375 0
0.25625 0.260937 0
0.128125 0.258594 0
0 0.25625 0
0.5125 0.265625 0
0.384375 0.263281 0
0.25625 0.260937 0
0.50625 0.132812 0
0.379687 0.131641 0
0.253125 0.130469 0
0.5 0 0
0.375 0 0
0.25 0 0
0.25625 0.260937 0
0.128125 0.258594 0
0 0.25625 0
0.253125 0.130469 0
0.126562 0.129297 0
0 0.128125 0
0.25 0 0
0.125 0 0
0 0 0
2 1 0
1.8875 1.0125 0
1.775 1.025 0
2 0.875 0
1.88594 0.885938 0
1.77188 0.896875 0
2 0.75 0
1.88437 0.759375 0
1.76875 0.76875 0
1.775 1.025 0
1.6625 1.0375 0
1.55 1.05 0
1.77188 0.896875 0
1.65781 0.907813 0
1.54375 0.91875 0
1.76875 0.76875 0
1.65313 0.778125 0
1.5375 0.7875 0
2 0.75 0
1.88437 0.759375 0
1.76875 0.76875 0
2 0.625 0
1.88281 0.632812 0
1.76562 0.640625 0
2 0.5 0
1.88125 0.50625 0
1.7625 0.5125 0
1.76875 0.76875 0
1.65313 0.778125 0
1.5375 0.7875 0
1.76562 0.640625 0
1.64844 0.648438 0
1.53125 0.65625 0
1.7625 0.5125 0
1.64375 0.51875 0
1.525 0.525 0
1.55 1.05 0
1.4375 1.0625 0
1.325 1.075 0
1.54375 0.91875 0
1.42969 0.929688 0
1.31563 0.940625 0
1.5375 0.7875 0
1.42188 0.796875 0
1.30625 0.80625 0
1.325 1.075 0
1.2125 1.0875 0
1.1 1.1 0
1.31563 0.940625 0
1.20156 0.951563 0
1.0875 0.9625 0
1.30625 0.80625 0
1.19063 0.815625 0
1.075 0.825 0
1.5375 0.7875 0
1.42188 0.796875 0
1.30625 0.80625 0
1.53125 0.65625 0
1.41406 0.664062 0
1.29688 0.671875 0
1.525 0.525 0
1.40625 0.53125 0
1.2875 0.5375 0
1.30625 0.80625 0
1.19063 0.815625 0
1.075 0.825 0
1.29688 0.671875 0
1.17969 0.679688 0
1.0625 0.6875 0
1.2875 0.5375 0
1.16875 0.54375 0
1.05 0.55 0
2 0.5 0
1.88125 0.50625 0
1.7625 0.5125 0
2 0.375 0
1.87969 0.379687 0
1.75938 0.384375 0
2 0.25 0
1.87813 0.253125 0
1.75625 0.25625 0
1.7625 0.5125 0
1.64375 0.51875 0
1.525 0.525 0
1.75938 0.384375 0
1.63906 0.389063 0
1.51875 0.39375 0
1.75625 0.25625 0
1.63438 0.259375 0
1.5125 0.2625 0
2 0.25 0
1.87813 0.253125 0
1.75625 0.25625 0
2 0.125 0
1.87656 0.126562 0
1.75313 0.128125 0
2 0 0
1.875 0 0
1.75 0 0
1.75625 0.25625 0
1.63438 0.259375 0
1.5125 0.2625 0
1.75313 0.128125 0
1.62969 0.129688 0
1.50625 0.13125 0
1.75 0 0
1.625 0 0
1.5 0 0
1.525 0.525 0
1.40625 0.53125 0
1.2875 0.5375 0
1.51875 0.39375 0
1.39844 0.398438 0
1.27813 0.403125 0
1.5125 0.2625 0
1.39062 0.265625 0
1.26875 0.26875 0
1.2875 0.5375 0
1.16875 0.54375 0
1.05 0.55 0
1.27813 0.403125 0
1.15781 0.407813 0
1.0375 0.4125 0
1.26875 0.26875 0
1.14688 0.271875 0
1.025 0.275 0
1.5125 0.2625 0
1.39062 0.265625 0
1.26875 0.26875 0
1.50625 0.13125 0
1.38281 0.132812 0
1.25937 0.134375 0
1.5 0 0
1.375 0 0
1.25 0 0
1.26875 0.26875 0
1.14688 0.271875 0
1.025 0.275 0
1.25937 0.134375 0
1.13594 0.135938 0
1.0125 0.1375 0
1.25 0 0
1.125 0 0
1 0 0
1 2 0
0.875 2.00625 0
0.75 2.0125 0
1.0125 1.8875 0
0.885938 1.8918 0
0.759375 1.89609 0
1.025 1.775 0
0.896875 1.77734 0
0.76875 1.77969 0
0.75 2.0125 0
0.625 2.01875 0
0.5 2.025 0
0.759375 1.89609 0
0.632812 1.90039 0
0.50625 1.90469 0
0.76875 1.77969 0
0.640625 1.78203 0
0.5125 1.78437 0
1.025 1.775 0
0.896875 1.77734 0
0.76875 1.77969 0
1.0375 1.6625 0
0.907813 1.66289 0
0.778125 1.66328 0
1.05 1.55 0
0.91875 1.54844 0
0.7875 1.54688 0
0.76875 1.77969 0
0.640625 1.78203 0
0.5125 1.78437 0
0.778125 1.66328 0
0.648438 1.66367 0
0.51875 1.66406 0
0.7875 1.54688 0
0.65625 1.54531 0
0.525 1.54375 0
0.5 2.025 0
0.375 2.03125 0
0.25 2.0375 0
0.50625 1.90469 0
0.379687 1.90898 0
0.253125 1.91328 0
0.5125 1.78437 0
0.384375 1.78672 0
0.25625 1.78906 0
0.25 2.0375 0
0.125 2.04375 0
0 2.05 0
0.253125 1.91328 0
0.126562 1.91758 0
0 1.92187 0
0.25625 1.78906 0
0.128125 1.79141 0
0 1.79375 0
0.5125 1.78437 0
0.384375 1.78672 0
0.25625 1.78906 0
0.51875 1.66406 0
0.389062 1.66445 0
0.259375 1.66484 0
0.525 1.54375 0
0.39375 1.54219 0
0.2625 1.54062 0
0.25625 1.78906 0
0.128125 1.79141 0
0 1.79375 0
0.259375 1.66484 0
0.129688 1.66523 0
0 1.66562 0
0.2625 1.54062 0
0.13125 1.53906 0
0 1.5375 0
1.05 1.55 0
0.91875 1.54844 0
0.7875 1.54688 0
1.0625 1.4375 0
0.929688 1.43398 0
0.796875 1.43047 0
1.075 1.325 0
0.940625 1.31953 0
0.80625 1.31406 0
0.7875 1.54688 0
0.65625 1.54531 0
0.525 1.54375 0
0.796875 1.43047 0
0.664062 1.42695 0
0.53125 1.42344 0
0.80625 1.31406 0
0.671875 1.30859 0
0.5375 1.30312 0
1.075 1.325 0
0.940625 1.31953 0
0.80625 1.31406 0
1.0875 1.2125 0
0.951563 1.20508 0
0.815625 1.19766 0
1.1 1.1 0
0.9625 1.09063 0
0.825 1.08125 0
0.80625 1.31406 0
0.671875 1.30859 0
0.5375 1.30312 0
0.815625 1.19766 0
0.679688 1.19023 0
0.54375 1.18281 0
0.825 1.08125 0
0.6875 1.07187 0
0.55 1.0625 0
0.525 1.54375 0
0.39375 1.54219 0
0.2625 1.54062 0
0.53125 1.42344 0
0.398438 1.41992 0
0.265625 1.41641 0
0.5375 1.30312 0
0.403125 1.29766 0
0.26875 1.29219 0
0.2625 1.54062 0
0.13125 1.53906 0
0 1.5375 0
0.265625 1.41641 0
0.132812 1.41289 0
0 1.40937 0
0.26875 1.29219 0
0.134375 1.28672 0
0 1.28125 0
0.5375 1.30312 0
0.403125 1.29766 0
0.26875 1.29219 0
0.54375 1.18281 0
0.407813 1.17539 0
0.271875 1.16797 0
0.55 1.0625 0
0.4125 1.05313 0
0.275 1.04375 0
0.26875 1.29219 0
0.134375 1.28672 0
0 1.28125 0
0.271875 1.16797 0
0.135938 1.16055 0
0 1.15312 0
0.275 1.04375 0
0.1375 1.03437 0
0 1.025 0
2.9 1.1 0
2.7875 1.0875 0
2.675 1.075 0
2.9125 0.9625 0
2.79844 0.951563 0
2.68438 0.940625 0
2.925 0.825 0
2.80938 0.815625 0
2.69375 0.80625 0
2.675 1.075 0
2.5625 1.0625 0
2.45 1.05 0
2.68438 0.940625 0
2.57031 0.929688 0
2.45625 0.91875 0
2.69375 0.80625 0
2.57812 0.796875 0
2.4625 0.7875 0
2.925 0.825 0
2.80938 0.815625 0
2.69375 0.80625 0
2.9375 0.6875 0
2.82031 0.679688 0
2.70312 0.671875 0
2.95 0.55 0
2.83125 0.54375 0
2.7125 0.5375 0
2.69375 0.80625 0
2.57812 0.796875 0
2.4625 0.7875 0
2.70312 0.671875 0
2.58594 0.664062 0
2.46875 0.65625 0
2.7125 0.5375 0
2.59375 0.53125 0
2.475 0.525 0
2.45 1.05 0
2.3375 1.0375 0
2.225 1.025 0
2.45625 0.91875 0
2.34219 0.907813 0
2.22813 0.896875 0
2.4625 0.7875 0
2.34688 0.778125 0
2.23125 0.76875 0
2.225 1.025 0
2.1125 1.0125 0
2 1 0
2.22813 0.896875 0
2.11406 0.885938 0
2 0.875 0
2.23125 0.76875 0
2.11563 0.759375 0
2 0.75 0
2.4625 0.7875 0
2.34688 0.778125 0
2.23125 0.76875 0
2.46875 0.65625 0
2.35156 0.648438 0
2.23438 0.640625 0
2.475 0.525 0
2.35625 0.51875 0
2.2375 0.5125 0
2.23125 0.76875 0
2.11563 0.759375 0
2 0.75 0
2.23438 0.640625 0
2.11719 0.632812 0
2 0.625 0
2.2375 0.5125 0
2.11875 0.50625 0
2 0.5 0
2.95 0.55 0
2.83125 0.54375 0
2.7125 0.5375 0
2.9625 0.4125 0
2.84219 0.407813 0
2.72188 0.403125 0
2.975 0.275 0
2.85313 0.271875 0
2.73125 0.26875 0
2.7125 0.5375 0
2.59375 0.53125 0
2.475 0.525 0
2.72188 0.403125 0
2.60156 0.398438 0
2.48125 0.39375 0
2.73125 0.26875 0
2.60938 0.265625 0
2.4875 0.2625 0
2.975 0.275 0
2.85313 0.271875 0
2.73125 0.26875 0
2.9875 0.1375 0
2.86406 0.135938 0
2.74063 0.134375 0
3 0 0
2.875 0 0
2.75 0 0
2.73125 0.26875 0
2.60938 0.265625 0
2.4875 0.2625 0
2.74063 0.134375 0
2.61719 0.132812 0
2.49375 0.13125 0
2.75 0 0
2.625 0 0
2.5 0 0
2.475 0.525 0
2.35625 0.51875 0
2.2375 0.5125 0
2.48125 0.39375 0
2.36094 0.389063 0
2.24062 0.384375 0
2.4875 0.2625 0
2.36562 0.259375 0
2.24375 0.25625 0
2.2375 0.5125 0
2.11875 0.50625 0
2 0.5 0
2.24062 0.384375 0
2.12031 0.379687 0
2 0.375 0
2.24375 0.25625 0
2.12188 0.253125 0
2 0.25 0
2.4875 0.2625 0
2.36562 0.259375 0
2.24375 0.25625 0
2.49375 0.13125 0
2.37031 0.129688 0
2.24688 0.128125 0
2.5 0 0
2.375 0 0
2.25 0 0
2.24375 0.25625 0
2.12188 0.253125 0
2 0.25 0
2.24688 0.128125 0
2.12344 0.126562 0
2 0.125 0
2.25 0 0
2.125 0 0
2 0 0
4 1 0
3.8625 1.0125 0
3.725 1.025 0
4 0.875 0
3.86406 0.885938 0
3.72813 0.896875 0
4 0.75 0
3.86563 0.759375 0
3.73125 0.76875 0
3.725 1.025 0
3.5875 1.0375 0
3.45 1.05 0
3.72813 0.896875 0
3.59219 0.907813 0
3.45625 0.91875 0
3.73125 0.76875 0
3.59688 0.778125 0
3.4625 0.7875 0
4 0.75 0
3.86563 0.759375 0
3.73125 0.76875 0
4 0.625 0
[...]
POINT_DATA 8640
VECTORS v double
1.25905 -0.305128 0
1.23858 -0.261118 0
1.20171 -0.211562 0
1.18768 -0.26818 0
1.15401 -0.229752 0
1.11939 -0.19333 0
1.09845 -0.231107 0
1.05985 -0.200093 0
1.02476 -0.169276 0
1.20171 -0.211562 0
1.19008 -0.175102 0
1.16704 -0.133374 0
1.11939 -0.19333 0
1.0975 -0.157845 0
1.07486 -0.124847 0
1.02476 -0.169276 0
0.995692 -0.138985 0
0.97177 -0.110531 0
1.09845 -0.231107 0
1.05985 -0.200093 0
1.02476 -0.169276 0
0.984692 -0.180599 0
0.943487 -0.158373 0
0.905792 -0.13619 0
0.848495 -0.13983 0
0.808833 -0.124332 0
0.772132 -0.108119 0
1.02476 -0.169276 0
0.995692 -0.138985 0
0.97177 -0.110531 0
0.905792 -0.13619 0
0.874846 -0.113525 0
0.848536 -0.090982 0
0.772132 -0.108119 0
0.741227 -0.090799 0
0.714693 -0.0732941 0
1.16704 -0.133374 0
1.15794 -0.101252 0
1.14074 -0.0644904 0
1.07486 -0.124847 0
1.0596 -0.0936506 0
1.04372 -0.0616014 0
0.97177 -0.110531 0
0.951083 -0.0819566 0
0.935898 -0.0541218 0
1.14074 -0.0644904 0
1.13532 -0.0337027 0
1.125 0 0
1.04372 -0.0616014 0
1.03435 -0.0303024 0
1.02539 0 0
0.935898 -0.0541218 0
0.922014 -0.0263201 0
0.914062 0 0
0.97177 -0.110531 0
0.951083 -0.0819566 0
0.935898 -0.0541218 0
0.848536 -0.090982 0
0.827378 -0.0677662 0
0.811685 -0.0451379 0
0.714693 -0.0732941 0
0.693239 -0.0551153 0
0.67713 -0.0370624 0
0.935898 -0.0541218 0
0.922014 -0.0263201 0
0.914062 0 0
0.811685 -0.0451379 0
0.798611 -0.0224263 0
0.791016 0 0
0.67713 -0.0370624 0
0.663977 -0.018617 0
0.65625 0 0
0.848495 -0.13983 0
0.808833 -0.124332 0
0.772132 -0.108119 0
0.700111 -0.0951558 0
0.660917 -0.0848439 0
0.624193 -0.0739329 0
0.528465 -0.0558295 0
0.492446 -0.0504307 0
0.458431 -0.0446874 0
0.772132 -0.108119 0
0.741227 -0.090799 0
0.714693 -0.0732941 0
0.624193 -0.0739329 0
0.592976 -0.0623331 0
0.566146 -0.0504073 0
0.458431 -0.0446874 0
0.429218 -0.038364 0
0.404033 -0.0318029 0
0.528465 -0.0558295 0
0.492446 -0.0504307 0
0.458431 -0.0446874 0
0.320825 -0.017572 0
0.291829 -0.0155984 0
0.265399 -0.0136682 0
0 0 0
0 0 0
0 0 0
0.458431 -0.0446874 0
0.429218 -0.038364 0
0.404033 -0.0318029 0
0.265399 -0.0136682 0
0.241658 -0.0114917 0
0.222184 -0.00939043 0
0 0 0
0 0 0
0 0 0
0.714693 -0.0732941 0
0.693239 -0.0551153 0
0.67713 -0.0370624 0
0.566146 -0.0504073 0
0.544413 -0.0377889 0
0.528443 -0.0251269 0
0.404033 -0.0318029 0
0.383512 -0.024668 0
0.368619 -0.0173987 0
0.67713 -0.0370624 0
0.663977 -0.018617 0
0.65625 0 0
0.528443 -0.0251269 0
0.516113 -0.0122302 0
0.509766 0 0
0.368619 -0.0173987 0
0.357171 -0.00938748 0
0.351562 0 0
0.404033 -0.0318029 0
0.383512 -0.024668 0
0.368619 -0.0173987 0
0.222184 -0.00939043 0
0.205407 -0.00692995 0
0.194271 -0.00458671 0
0 0 0
0 0 0
0 0 0
0.368619 -0.0173987 0
0.357171 -0.00938748 0
0.351562 0 0
0.194271 -0.00458671 0
0.185175 -0.00204272 0
0.181641 0 0
0 0 0
0 0 0
0 0 0
1.76061 -0.322301 0
1.70809 -0.38251 0
1.60784 -0.420164 0
1.60869 -0.237398 0
1.55181 -0.287779 0
1.48219 -0.324357 0
1.45127 -0.176563 0
1.41234 -0.224467 0
1.36292 -0.259769 0
1.60784 -0.420164 0
1.5438 -0.428785 0
1.44684 -0.422493 0
1.48219 -0.324357 0
1.42055 -0.341541 0
1.35126 -0.346846 0
1.36292 -0.259769 0
1.31391 -0.279672 0
1.25911 -0.286982 0
1.45127 -0.176563 0
1.41234 -0.224467 0
1.36292 -0.259769 0
1.3196 -0.131836 0
1.28408 -0.162718 0
1.24084 -0.187089 0
1.14288 -0.0805637 0
1.11124 -0.106572 0
1.07351 -0.127844 0
1.36292 -0.259769 0
1.31391 -0.279672 0
1.25911 -0.286982 0
1.24084 -0.187089 0
1.19441 -0.202019 0
1.1436 -0.209448 0
1.07351 -0.127844 0
1.0345 -0.143047 0
0.991766 -0.152404 0
1.44684 -0.422493 0
1.39832 -0.403125 0
1.32991 -0.372535 0
1.35126 -0.346846 0
1.30389 -0.336533 0
1.25198 -0.319687 0
1.25911 -0.286982 0
1.21407 -0.282431 0
1.16859 -0.270072 0
1.32991 -0.372535 0
1.30286 -0.342311 0
1.25905 -0.305128 0
1.25198 -0.319687 0
1.22081 -0.294724 0
1.18768 -0.26818 0
1.16859 -0.270072 0
1.13263 -0.251951 0
1.09845 -0.231107 0
1.25911 -0.286982 0
1.21407 -0.282431 0
1.16859 -0.270072 0
1.1436 -0.209448 0
1.09993 -0.209237 0
1.05553 -0.203881 0
0.991766 -0.152404 0
0.95398 -0.155753 0
0.915117 -0.154565 0
1.16859 -0.270072 0
1.13263 -0.251951 0
1.09845 -0.231107 0
1.05553 -0.203881 0
1.01929 -0.19397 0
0.984692 -0.180599 0
0.915117 -0.154565 0
0.881473 -0.148857 0
0.848495 -0.13983 0
1.14288 -0.0805637 0
1.11124 -0.106572 0
1.07351 -0.127844 0
0.976185 -0.0561865 0
0.950485 -0.0739806 0
0.917665 -0.088492 0
0.788816 -0.0232248 0
0.76552 -0.0348147 0
0.734968 -0.0446343 0
1.07351 -0.127844 0
1.0345 -0.143047 0
0.991766 -0.152404 0
0.917665 -0.088492 0
0.883056 -0.0983988 0
0.843165 -0.104133 0
0.734968 -0.0446343 0
0.702665 -0.0517901 0
0.665242 -0.0564721 0
0.788816 -0.0232248 0
0.76552 -0.0348147 0
0.734968 -0.0446343 0
0.506324 -0.00702295 0
0.496563 -0.0109766 0
0.477077 -0.0143907 0
0 0 0
0 0 0
0 0 0
0.734968 -0.0446343 0
0.702665 -0.0517901 0
0.665242 -0.0564721 0
0.477077 -0.0143907 0
0.45681 -0.0169354 0
0.42894 -0.0184034 0
0 0 0
0 0 0
0 0 0
0.991766 -0.152404 0
0.95398 -0.155753 0
0.915117 -0.154565 0
0.843165 -0.104133 0
0.806917 -0.105854 0
0.768198 -0.104718 0
0.665242 -0.0564721 0
0.630878 -0.0588113 0
0.593961 -0.0594735 0
0.915117 -0.154565 0
0.881473 -0.148857 0
0.848495 -0.13983 0
0.768198 -0.104718 0
0.734084 -0.101112 0
0.700111 -0.0951558 0
0.593961 -0.0594735 0
0.561372 -0.0584987 0
0.528465 -0.0558295 0
0.665242 -0.0564721 0
0.630878 -0.0588113 0
0.593961 -0.0594735 0
0.42894 -0.0184034 0
0.403636 -0.0191813 0
0.374224 -0.0191327 0
0 0 0
0 0 0
0 0 0
0.593961 -0.0594735 0
0.561372 -0.0584987 0
0.528465 -0.0558295 0
0.374224 -0.0191327 0
0.347925 -0.0187816 0
0.320825 -0.017572 0
0 0 0
0 0 0
0 0 0
1.24988 -0.0795238 0
1.32186 -0.0702222 0
1.37849 -0.0604034 0
1.26819 -0.159375 0
1.33068 -0.130276 0
1.38318 -0.104987 0
1.27076 -0.215957 0
1.32481 -0.174262 0
1.37301 -0.139502 0
1.37849 -0.0604034 0
1.41973 -0.0518252 0
1.45019 -0.042146 0
1.38318 -0.104987 0
1.4196 -0.085671 0
1.44869 -0.0675108 0
1.37301 -0.139502 0
1.40508 -0.112347 0
1.43289 -0.0874299 0
1.27076 -0.215957 0
1.32481 -0.174262 0
1.37301 -0.139502 0
1.28985 -0.284883 0
1.33118 -0.22722 0
1.36798 -0.179806 0
1.31068 -0.310441 0
1.33341 -0.249477 0
1.35444 -0.19807 0
1.37301 -0.139502 0
1.40508 -0.112347 0
1.43289 -0.0874299 0
1.36798 -0.179806 0
1.39246 -0.143719 0
1.4144 -0.110894 0
1.35444 -0.19807 0
1.36981 -0.158654 0
1.38459 -0.121711 0
1.45019 -0.042146 0
1.47295 -0.0325416 0
1.48713 -0.0217024 0
1.44869 -0.0675108 0
1.4689 -0.0511389 0
1.48292 -0.0338517 0
1.43289 -0.0874299 0
1.45122 -0.064967 0
1.46594 -0.0425139 0
1.48713 -0.0217024 0
1.49744 -0.0110092 0
1.5 0 0
1.48292 -0.0338517 0
1.49127 -0.0168625 0
1.49414 0 0
1.46594 -0.0425139 0
1.47314 -0.0211621 0
1.47656 0 0
1.43289 -0.0874299 0
1.45122 -0.064967 0
1.46594 -0.0425139 0
1.4144 -0.110894 0
1.42827 -0.0824148 0
1.44016 -0.054191 0
1.38459 -0.121711 0
1.39361 -0.0898676 0
1.40225 -0.0583575 0
1.46594 -0.0425139 0
1.47314 -0.0211621 0
1.47656 0 0
1.44016 -0.054191 0
1.44472 -0.0274922 0
1.44727 0 0
1.40225 -0.0583575 0
1.40455 -0.0295024 0
1.40625 0 0
1.31068 -0.310441 0
1.33341 -0.249477 0
1.35444 -0.19807 0
1.30935 -0.336354 0
1.32251 -0.275198 0
1.32915 -0.219811 0
1.31217 -0.337009 0
1.31051 -0.277781 0
1.30057 -0.222955 0
1.35444 -0.19807 0
1.36981 -0.158654 0
1.38459 -0.121711 0
1.32915 -0.219811 0
1.33895 -0.17794 0
1.34497 -0.136174 0
1.30057 -0.222955 0
1.30142 -0.180541 0
1.29756 -0.137768 0
1.31217 -0.337009 0
1.31051 -0.277781 0
1.30057 -0.222955 0
1.28977 -0.325138 0
1.27703 -0.276209 0
1.255 -0.222599 0
1.25905 -0.305128 0
1.23858 -0.261118 0
1.20171 -0.211562 0
1.30057 -0.222955 0
1.30142 -0.180541 0
1.29756 -0.137768 0
1.255 -0.222599 0
1.24853 -0.18389 0
1.23691 -0.140107 0
1.20171 -0.211562 0
1.19008 -0.175102 0
1.16704 -0.133374 0
1.38459 -0.121711 0
1.39361 -0.0898676 0
1.40225 -0.0583575 0
1.34497 -0.136174 0
1.35024 -0.101411 0
1.35316 -0.0661967 0
1.29756 -0.137768 0
1.29703 -0.102425 0
1.29349 -0.0660526 0
1.40225 -0.0583575 0
1.40455 -0.0295024 0
1.40625 0 0
1.35316 -0.0661967 0
1.35416 -0.0345773 0
1.35352 0 0
1.29349 -0.0660526 0
1.292 -0.033954 0
1.28906 0 0
1.29756 -0.137768 0
1.29703 -0.102425 0
1.29349 -0.0660526 0
1.23691 -0.140107 0
1.23118 -0.105906 0
1.22226 -0.0681224 0
1.16704 -0.133374 0
1.15794 -0.101252 0
1.14074 -0.0644904 0
1.29349 -0.0660526 0
1.292 -0.033954 0
1.28906 0 0
1.22226 -0.0681224 0
1.21832 -0.0361025 0
1.21289 0 0
1.14074 -0.0644904 0
1.13532 -0.0337027 0
1.125 0 0
1.74218 0.45807 0
1.86981 0.36388 0
1.92281 0.263965 0
1.68414 0.369526 0
1.74096 0.316823 0
1.78973 0.241053 0
1.43238 0.299865 0
1.49808 0.26223 0
1.54557 0.209375 0
1.92281 0.263965 0
1.98234 0.158014 0
1.97838 0.0521247 0
1.78973 0.241053 0
1.80595 0.155529 0
1.80942 0.0610716 0
1.54557 0.209375 0
1.57703 0.145676 0
1.58845 0.0743028 0
1.43238 0.299865 0
1.49808 0.26223 0
1.54557 0.209375 0
1.32144 0.190152 0
1.36212 0.166184 0
1.39863 0.130861 0
1.19293 0.155929 0
1.22039 0.139888 0
1.24316 0.115633 0
1.54557 0.209375 0
1.57703 0.145676 0
1.58845 0.0743028 0
1.39863 0.130861 0
1.41672 0.0889506 0
1.42698 0.041312 0
1.24316 0.115633 0
1.25293 0.0846329 0
1.25538 0.04957 0
1.97838 0.0521247 0
1.97765 -0.0512936 0
1.91008 -0.154308 0
1.80942 0.0610716 0
1.78221 -0.0297769 0
1.7395 -0.113085 0
1.58845 0.0743028 0
1.5784 0.00369161 0
1.5496 -0.0641092 0
1.91008 -0.154308 0
1.8566 -0.240555 0
1.76061 -0.322301 0
1.7395 -0.113085 0
1.68329 -0.181159 0
1.60869 -0.237398 0
1.5496 -0.0641092 0
1.50535 -0.122784 0
1.45127 -0.176563 0
1.58845 0.0743028 0
1.5784 0.00369161 0
1.5496 -0.0641092 0
1.42698 0.041312 0
1.41724 -0.00681772 0
1.39833 -0.0545546 0
1.25538 0.04957 0
1.24309 0.0132202 0
1.22166 -0.0221171 0
1.5496 -0.0641092 0
1.50535 -0.122784 0
1.45127 -0.176563 0
1.39833 -0.0545546 0
1.36391 -0.0965544 0
1.3196 -0.131836 0
1.22166 -0.0221171 0
1.18644 -0.0533586 0
1.14288 -0.0805637 0
1.19293 0.155929 0
1.22039 0.139888 0
1.24316 0.115633 0
0.997048 0.102335 0
1.02045 0.0939941 0
1.0427 0.0791944 0
0.771191 0.0699195 0
0.796273 0.0667003 0
0.82069 0.0596627 0
1.24316 0.115633 0
1.25293 0.0846329 0
1.25538 0.04957 0
1.0427 0.0791944 0
1.053 0.059107 0
1.05818 0.0357343 0
0.82069 0.0596627 0
0.835165 0.0484003 0
0.844882 0.0347543 0
0.771191 0.0699195 0
0.796273 0.0667003 0
0.82069 0.0596627 0
0.408811 0.0230695 0
0.439323 0.0221675 0
0.469665 0.0198885 0
0 0 0
0 0 0
0 0 0
0.82069 0.0596627 0
0.835165 0.0484003 0
0.844882 0.0347543 0
0.469665 0.0198885 0
0.49373 0.0167036 0
0.513199 0.012381 0
0 0 0
0 0 0
0 0 0
1.25538 0.04957 0
1.24309 0.0132202 0
1.22166 -0.0221171 0
1.05818 0.0357343 0
1.05008 0.010966 0
1.03474 -0.0136299 0
0.844882 0.0347543 0
0.842968 0.0193487 0
0.834362 0.00371177 0
1.22166 -0.0221171 0
1.18644 -0.0533586 0
1.14288 -0.0805637 0
1.03474 -0.0136299 0
1.00916 -0.0362052 0
0.976185 -0.0561865 0
0.834362 0.00371177 0
0.815326 -0.0107318 0
0.788816 -0.0232248 0
0.844882 0.0347543 0
0.842968 0.0193487 0
0.834362 0.00371177 0
0.513199 0.012381 0
0.52387 0.00778848 0
0.526533 0.00252566 0
0 0 0
0 0 0
0 0 0
0.834362 0.00371177 0
0.815326 -0.0107318 0
0.788816 -0.0232248 0
0.526533 0.00252566 0
0.521276 -0.0023489 0
0.506324 -0.00702295 0
0 0 0
0 0 0
0 0 0
1.05302 -0.236907 0
1.06367 -0.0926265 0
1.05663 0.0311071 0
1.13695 -0.220116 0
1.09434 -0.127576 0
1.10332 -0.0261483 0
1.13032 -0.172964 0
1.10957 -0.0993828 0
1.0564 -0.0168454 0
1.05663 0.0311071 0
1.12817 0.175241 0
1.2309 0.312223 0
1.10332 -0.0261483 0
1.12615 0.0932143 0
1.18707 0.207756 0
1.0564 -0.0168454 0
1.07624 0.0716809 0
1.08737 0.150638 0
1.13032 -0.172964 0
1.10957 -0.0993828 0
1.0564 -0.0168454 0
1.06401 -0.114265 0
1.03893 -0.0634629 0
1.01643 -0.0122116 0
0.984084 -0.0763223 0
0.972252 -0.0463694 0
0.964509 -0.0117918 0
1.0564 -0.0168454 0
1.07624 0.0716809 0
1.08737 0.150638 0
1.01643 -0.0122116 0
1.03865 0.0499647 0
1.07004 0.103524 0
0.964509 -0.0117918 0
0.977024 0.0321394 0
0.998961 0.0731355 0
1.2309 0.312223 0
1.35673 0.412174 0
1.50323 0.476432 0
1.18707 0.207756 0
1.29238 0.306558 0
1.41573 0.368517 0
1.08737 0.150638 0
1.15465 0.220195 0
1.22626 0.268668 0
1.50323 0.476432 0
1.61813 0.482991 0
1.74218 0.45807 0
1.41573 0.368517 0
1.55648 0.393043 0
1.68414 0.369526 0
1.22626 0.268668 0
1.32533 0.29792 0
1.43238 0.299865 0
1.08737 0.150638 0
1.15465 0.220195 0
1.22626 0.268668 0
1.07004 0.103524 0
1.12484 0.151094 0
1.18497 0.180727 0
0.998961 0.0731355 0
1.03682 0.111779 0
1.0845 0.140256 0
1.22626 0.268668 0
1.32533 0.29792 0
1.43238 0.299865 0
1.18497 0.180727 0
1.25235 0.195286 0
1.32144 0.190152 0
1.0845 0.140256 0
1.13737 0.156264 0
1.19293 0.155929 0
0.984084 -0.0763223 0
0.972252 -0.0463694 0
0.964509 -0.0117918 0
0.844644 -0.0459179 0
0.829351 -0.0263357 0
0.821635 -0.00498582 0
0.593598 -0.0234631 0
0.584828 -0.0144256 0
0.587511 -0.00374188 0
0.964509 -0.0117918 0
0.977024 0.0321394 0
0.998961 0.0731355 0
0.821635 -0.00498582 0
0.825914 0.0222388 0
0.843487 0.0473348 0
0.587511 -0.00374188 0
0.595425 0.0108447 0
0.61855 0.0260051 0
0.593598 -0.0234631 0
0.584828 -0.0144256 0
0.587511 -0.00374188 0
0.259832 -0.00615326 0
0.243444 -0.00196623 0
0.251508 0.00252957 0
0 0 0
0 0 0
0 0 0
0.587511 -0.00374188 0
0.595425 0.0108447 0
0.61855 0.0260051 0
0.251508 0.00252957 0
0.255197 0.00699216 0
0.275578 0.011822 0
0 0 0
0 0 0
0 0 0
0.998961 0.0731355 0
1.03682 0.111779 0
1.0845 0.140256 0
0.843487 0.0473348 0
0.870633 0.0706071 0
0.908678 0.0884807 0
0.61855 0.0260051 0
0.646244 0.041655 0
0.686189 0.0556038 0
1.0845 0.140256 0
1.13737 0.156264 0
1.19293 0.155929 0
0.908678 0.0884807 0
0.950347 0.0995582 0
0.997048 0.102335 0
0.686189 0.0556038 0
0.726199 0.0655601 0
0.771191 0.0699195 0
0.61855 0.0260051 0
0.646244 0.041655 0
0.686189 0.0556038 0
0.275578 0.011822 0
0.297493 0.0157072 0
0.331338 0.0193256 0
0 0 0
0 0 0
0 0 0
0.686189 0.0556038 0
0.726199 0.0655601 0
0.771191 0.0699195 0
0.331338 0.0193256 0
0.366893 0.0215525 0
0.408811 0.0230695 0
0 0 0
0 0 0
0 0 0
0.845588 -0.850699 0
0.721764 -0.367709 0
0.545128 0.196222 0
0.609542 -0.682308 0
0.412382 -0.123046 0
0.237228 0.440444 0
0.40468 -0.570887 0
0.203436 -0.0422882 0
0.0559234 0.53308 0
0.545128 0.196222 0
0.270442 0.592067 0
-0.105752 1.02485 0
0.237228 0.440444 0
0.0726665 0.84567 0
-0.211391 1.32104 0
0.0559234 0.53308 0
0.047416 1.00637 0
-0.00543757 1.33165 0
0.40468 -0.570887 0
0.203436 -0.0422882 0
0.0559234 0.53308 0
0.30479 -0.375967 0
0.118434 0.151592 0
0.06169 0.652878 0
0.26028 -0.266889 0
0.143967 0.102658 0
0.196188 0.462899 0
0.0559234 0.53308 0
0.047416 1.00637 0
-0.00543757 1.33165 0
0.06169 0.652878 0
0.197745 0.950319 0
0.328468 1.16443 0
0.196188 0.462899 0
0.460898 0.701858 0
0.662708 0.893831 0
-0.105752 1.02485 0
-0.279272 1.52311 0
-0.266425 1.4258 0
-0.211391 1.32104 0
-0.111611 1.55232 0
-0.0299882 1.41122 0
-0.00543757 1.33165 0
0.214363 1.44062 0
0.326309 1.44838 0
-0.266425 1.4258 0
-0.449992 1.29175 0
-0.493902 1.05576 0
-0.0299882 1.41122 0
-0.15593 1.32274 0
-0.169811 0.920808 0
0.326309 1.44838 0
0.273456 1.32987 0
0.242792 0.87178 0
-0.00543757 1.33165 0
0.214363 1.44062 0
0.326309 1.44838 0
0.328468 1.16443 0
0.58268 1.29114 0
0.718009 1.37555 0
0.662708 0.893831 0
0.922313 1.0965 0
1.10949 1.22727 0
0.326309 1.44838 0
0.273456 1.32987 0
0.242792 0.87178 0
0.718009 1.37555 0
0.754131 1.29755 0
0.71651 0.867216 0
1.10949 1.22727 0
1.23757 1.26731 0
1.25642 0.974603 0
0.26028 -0.266889 0
0.143967 0.102658 0
0.196188 0.462899 0
0.264412 -0.226945 0
0.312592 0.104814 0
0.444651 0.404914 0
0.420803 -0.149955 0
0.570552 0.0861032 0
0.659628 0.168237 0
0.196188 0.462899 0
0.460898 0.701858 0
0.662708 0.893831 0
0.444651 0.404914 0
0.672478 0.535168 0
0.826661 0.723929 0
0.659628 0.168237 0
0.822978 0.333152 0
0.944403 0.556033 0
0.420803 -0.149955 0
0.570552 0.0861032 0
0.659628 0.168237 0
0.71939 -0.233006 0
0.873169 -0.0853825 0
0.92558 0.0561067 0
1.05302 -0.236907 0
1.06367 -0.0926265 0
1.05663 0.0311071 0
0.659628 0.168237 0
0.822978 0.333152 0
0.944403 0.556033 0
0.92558 0.0561067 0
1.0242 0.234145 0
1.08554 0.405158 0
1.05663 0.0311071 0
1.12817 0.175241 0
1.2309 0.312223 0
0.662708 0.893831 0
0.922313 1.0965 0
1.10949 1.22727 0
0.826661 0.723929 0
1.12075 0.922211 0
1.37982 1.02975 0
0.944403 0.556033 0
1.18965 0.720107 0
1.46359 0.815072 0
1.10949 1.22727 0
1.23757 1.26731 0
1.25642 0.974603 0
1.37982 1.02975 0
1.57772 1.10086 0
1.70309 0.95393 0
1.46359 0.815072 0
1.73375 0.85198 0
1.97205 0.804313 0
0.944403 0.556033 0
1.18965 0.720107 0
1.46359 0.815072 0
1.08554 0.405158 0
1.25671 0.557095 0
1.42986 0.634901 0
1.2309 0.312223 0
1.35673 0.412174 0
1.50323 0.476432 0
1.46359 0.815072 0
1.73375 0.85198 0
1.97205 0.804313 0
1.42986 0.634901 0
1.62345 0.667066 0
1.84482 0.665684 0
1.50323 0.476432 0
1.61813 0.482991 0
1.74218 0.45807 0
1.77717 -0.622099 0
1.9259 -0.576708 0
2.08768 -0.532414 0
1.89243 -0.789651 0
2.02669 -0.744963 0
2.11904 -0.659545 0
1.91853 -0.901785 0
2.03912 -0.835817 0
2.11171 -0.723505 0
2.08768 -0.532414 0
2.19995 -0.410471 0
2.25214 -0.273414 0
2.11904 -0.659545 0
2.14724 -0.499528 0
2.1372 -0.331625 0
2.11171 -0.723505 0
2.1122 -0.521143 0
2.01237 -0.298386 0
1.91853 -0.901785 0
2.03912 -0.835817 0
2.11171 -0.723505 0
1.95381 -1.06745 0
2.07587 -0.928571 0
2.02166 -0.686167 0
2.02242 -1.19284 0
1.88196 -0.837707 0
1.72455 -0.55284 0
2.11171 -0.723505 0
2.1122 -0.521143 0
2.01237 -0.298386 0
2.02166 -0.686167 0
1.88787 -0.371818 0
1.64118 -0.0619054 0
1.72455 -0.55284 0
1.51527 -0.17682 0
1.31118 0.10771 0
2.25214 -0.273414 0
2.24524 -0.125352 0
2.19485 -0.0015945 0
2.1372 -0.331625 0
2.02798 -0.147955 0
1.88724 -0.00586568 0
2.01237 -0.298386 0
1.7788 -0.0887001 0
1.50647 0.0585083 0
2.19485 -0.0015945 0
2.15729 0.0918433 0
2.09222 0.153037 0
1.88724 -0.00586568 0
1.76281 0.105113 0
1.65164 0.158197 0
1.50647 0.0585083 0
1.23913 0.127092 0
0.98174 0.119561 0
2.01237 -0.298386 0
1.7788 -0.0887001 0
1.50647 0.0585083 0
1.64118 -0.0619054 0
1.41027 0.173773 0
1.08484 0.3791 0
1.31118 0.10771 0
1.09848 0.360846 0
0.762748 0.568037 0
1.50647 0.0585083 0
1.23913 0.127092 0
0.98174 0.119561 0
1.08484 0.3791 0
0.868651 0.434356 0
0.545738 0.438972 0
0.762748 0.568037 0
0.561007 0.621181 0
0.224055 0.611748 0
2.02242 -1.19284 0
1.88196 -0.837707 0
1.72455 -0.55284 0
1.75755 -1.18552 0
1.54545 -0.778066 0
1.50373 -0.493974 0
1.47839 -1.13412 0
1.33992 -0.668352 0
1.20583 -0.25402 0
1.72455 -0.55284 0
1.51527 -0.17682 0
1.31118 0.10771 0
1.50373 -0.493974 0
1.21443 -0.0137228 0
1.05069 0.255712 0
1.20583 -0.25402 0
0.882995 0.207084 0
0.622925 0.543717 0
1.47839 -1.13412 0
1.33992 -0.668352 0
1.20583 -0.25402 0
1.15974 -0.954196 0
1.01609 -0.491874 0
0.802258 -0.0451542 0
0.845588 -0.850699 0
0.721764 -0.367709 0
0.545128 0.196222 0
1.20583 -0.25402 0
0.882995 0.207084 0
0.622925 0.543717 0
0.802258 -0.0451542 0
0.560904 0.373652 0
0.218717 0.780821 0
0.545128 0.196222 0
0.270442 0.592067 0
-0.105752 1.02485 0
1.31118 0.10771 0
1.09848 0.360846 0
0.762748 0.568037 0
1.05069 0.255712 0
0.669611 0.598219 0
0.34763 0.809237 0
0.622925 0.543717 0
0.233884 0.892217 0
-0.111985 1.06566 0
0.762748 0.568037 0
0.561007 0.621181 0
0.224055 0.611748 0
0.34763 0.809237 0
0.0615554 0.863734 0
-0.123929 0.75373 0
-0.111985 1.06566 0
-0.391304 1.01039 0
-0.524986 0.874319 0
0.622925 0.543717 0
0.233884 0.892217 0
-0.111985 1.06566 0
0.218717 0.780821 0
-0.0870877 1.28493 0
-0.295384 1.3105 0
-0.105752 1.02485 0
-0.279272 1.52311 0
-0.266425 1.4258 0
-0.111985 1.06566 0
-0.391304 1.01039 0
-0.524986 0.874319 0
-0.295384 1.3105 0
-0.540573 1.16347 0
-0.633983 0.94541 0
-0.266425 1.4258 0
-0.449992 1.29175 0
-0.493902 1.05576 0
0 0 0
0 0 0
0 0 0
0.316819 -0.021257 0
0.371376 -0.0203435 0
0.407651 -0.0197627 0
0.579613 -0.0843402 0
0.660412 -0.0889533 0
0.735946 -0.0940552 0
0 0 0
0 0 0
0 0 0
0.407651 -0.0197627 0
0.45579 -0.0206558 0
0.497233 -0.0215342 0
0.735946 -0.0940552 0
0.811371 -0.0946232 0
0.876565 -0.0915035 0
0.579613 -0.0843402 0
0.660412 -0.0889533 0
0.735946 -0.0940552 0
0.86494 -0.160792 0
0.947141 -0.159669 0
1.03126 -0.157696 0