# vtk DataFile Version 3.0
#This file was generated by the deal.II library on 2025/1/4 at 9:56:28
ASCII
DATASET UNSTRUCTURED_GRID

POINTS 8640 double
1.1 1.1 0
0.9625 1.09063 0
0.825 1.08125 0
1.0875 0.9625 0
0.951563 0.954297 0
0.815625 0.946094 0
1.075 0.825 0
0.940625 0.817969 0
0.80625 0.810937 0
0.825 1.08125 0
0.6875 1.07187 0
0.55 1.0625 0
0.815625 0.946094 0
0.679688 0.937891 0
0.54375 0.929688 0
0.80625 0.810937 0
0.671875 0.803906 0
0.5375 0.796875 0
1.075 0.825 0
0.940625 0.817969 0
0.80625 0.810937 0
1.0625 0.6875 0
0.929688 0.681641 0
0.796875 0.675781 0
1.05 0.55 0
0.91875 0.545313 0
0.7875 0.540625 0
0.80625 0.810937 0
0.671875 0.803906 0
0.5375 0.796875 0
0.796875 0.675781 0
0.664062 0.669922 0
0.53125 0.664062 0
0.7875 0.540625 0
0.65625 0.535937 0
0.525 0.53125 0
0.55 1.0625 0
0.4125 1.05313 0
0.275 1.04375 0
0.54375 0.929688 0
0.407813 0.921484 0
0.271875 0.913281 0
0.5375 0.796875 0
0.403125 0.789844 0
0.26875 0.782813 0
0.275 1.04375 0
0.1375 1.03437 0
0 1.025 0
0.271875 0.913281 0
0.135938 0.905078 0
0 0.896875 0
0.26875 0.782813 0
0.134375 0.775781 0
0 0.76875 0
0.5375 0.796875 0
0.403125 0.789844 0
0.26875 0.782813 0
0.53125 0.664062 0
0.398438 0.658203 0
0.265625 0.652344 0
0.525 0.53125 0
0.39375 0.526563 0
0.2625 0.521875 0
0.26875 0.782813 0
0.134375 0.775781 0
0 0.76875 0
0.265625 0.652344 0
0.132812 0.646484 0
0 0.640625 0
0.2625 0.521875 0
0.13125 0.517187 0
0 0.5125 0
1.05 0.55 0
0.91875 0.545313 0
0.7875 0.540625 0
1.0375 0.4125 0
0.907812 0.408984 0
0.778125 0.405469 0
1.025 0.275 0
0.896875 0.272656 0
0.76875 0.270313 0
0.7875 0.540625 0
0.65625 0.535937 0
0.525 0.53125 0
0.778125 0.405469 0
0.648438 0.401953 0
0.51875 0.398438 0
0.76875 0.270313 0
0.640625 0.267969 0
0.5125 0.265625 0
1.025 0.275 0
0.896875 0.272656 0
0.76875 0.270313 0
1.0125 0.1375 0
0.885937 0.136328 0
0.759375 0.135156 0
1 0 0
0.875 0 0
0.75 0 0
0.76875 0.270313 0
0.640625 0.267969 0
0.5125 0.265625 0
0.759375 0.135156 0
0.632812 0.133984 0
0.50625 0.132812 0
0.75 0 0
0.625 0 0
0.5 0 0
0.525 0.53125 0
0.39375 0.526563 0
0.2625 0.521875 0
0.51875 0.398438 0
0.389062 0.394922 0
0.259375 0.391406 0
0.5125 0.265625 0
0.384375 0.263281 0
0.25625 0.260937 0
0.2625 0.521875 0
0.13125 0.517187 0
0 0.5125 0
0.259375 0.391406 0
0.129688 0.387891 0
0 0.384375 0
0.25625 0.260937 0
0.128125 0.258594 0
0 0.25625 0
0.5125 0.265625 0
0.384375 0.263281 0
0.25625 0.260937 0
0.50625 0.132812 0
0.379687 0.131641 0
0.253125 0.130469 0
0.5 0 0
0.375 0 0
0.25 0 0
0.25625 0.260937 0
0.128125 0.258594 0
0 0.25625 0
0.253125 0.130469 0
0.126562 0.129297 0
0 0.128125 0
0.25 0 0
0.125 0 0
0 0 0
2 1 0
1.8875 1.0125 0
1.775 1.025 0
2 0.875 0
1.88594 0.885938 0
1.77188 0.896875 0
2 0.75 0
1.88437 0.759375 0
1.76875 0.76875 0
1.775 1.025 0
1.6625 1.0375 0
1.55 1.05 0
1.77188 0.896875 0
1.65781 0.907813 0
1.54375 0.91875 0
1.76875 0.76875 0
1.65313 0.778125 0
1.5375 0.7875 0
2 0.75 0
1.88437 0.759375 0
1.76875 0.76875 0
2 0.625 0
1.88281 0.632812 0
1.76562 0.640625 0
2 0.5 0
1.88125 0.50625 0
1.7625 0.5125 0
1.76875 0.76875 0
1.65313 0.778125 0
1.5375 0.7875 0
1.76562 0.640625 0
1.64844 0.648438 0
1.53125 0.65625 0
1.7625 0.5125 0
1.64375 0.51875 0
1.525 0.525 0
1.55 1.05 0
1.4375 1.0625 0
1.325 1.075 0
1.54375 0.91875 0
1.42969 0.929688 0
1.31563 0.940625 0
1.5375 0.7875 0
1.42188 0.796875 0
1.30625 0.80625 0
1.325 1.075 0
1.2125 1.0875 0
1.1 1.1 0
1.31563 0.940625 0
1.20156 0.951563 0
1.0875 0.9625 0
1.30625 0.80625 0
1.19063 0.815625 0
1.075 0.825 0
1.5375 0.7875 0
1.42188 0.796875 0
1.30625 0.80625 0
1.53125 0.65625 0
1.41406 0.664062 0
1.29688 0.671875 0
1.525 0.525 0
1.40625 0.53125 0
1.2875 0.5375 0
1.30625 0.80625 0
1.19063 0.815625 0
1.075 0.825 0
1.29688 0.671875 0
1.17969 0.679688 0
1.0625 0.6875 0
1.2875 0.5375 0
1.16875 0.54375 0
1.05 0.55 0
2 0.5 0
1.88125 0.50625 0
1.7625 0.5125 0
2 0.375 0
1.87969 0.379687 0
1.75938 0.384375 0
2 0.25 0
1.87813 0.253125 0
1.75625 0.25625 0
1.7625 0.5125 0
1.64375 0.51875 0
1.525 0.525 0
1.75938 0.384375 0
1.63906 0.389063 0
1.51875 0.39375 0
1.75625 0.25625 0
1.63438 0.259375 0
1.5125 0.2625 0
2 0.25 0
1.87813 0.253125 0
1.75625 0.25625 0
2 0.125 0
1.87656 0.126562 0
1.75313 0.128125 0
2 0 0
1.875 0 0
1.75 0 0
1.75625 0.25625 0
1.63438 0.259375 0
1.5125 0.2625 0
1.75313 0.128125 0
1.62969 0.129688 0
1.50625 0.13125 0
1.75 0 0
1.625 0 0
1.5 0 0
1.525 0.525 0
1.40625 0.53125 0
1.2875 0.5375 0
1.51875 0.39375 0
1.39844 0.398438 0
1.27813 0.403125 0
1.5125 0.2625 0
1.39062 0.265625 0
1.26875 0.26875 0
1.2875 0.5375 0
1.16875 0.54375 0
1.05 0.55 0
1.27813 0.403125 0
1.15781 0.407813 0
1.0375 0.4125 0
1.26875 0.26875 0
1.14688 0.271875 0
1.025 0.275 0
1.5125 0.2625 0
1.39062 0.265625 0
1.26875 0.26875 0
1.50625 0.13125 0
1.38281 0.132812 0
1.25937 0.134375 0
1.5 0 0
1.375 0 0
1.25 0 0
1.26875 0.26875 0
1.14688 0.271875 0
1.025 0.275 0
1.25937 0.134375 0
1.13594 0.135938 0
1.0125 0.1375 0
1.25 0 0
1.125 0 0
1 0 0
1 2 0
0.875 2.00625 0
0.75 2.0125 0
1.0125 1.8875 0
0.885938 1.8918 0
0.759375 1.89609 0
1.025 1.775 0
0.896875 1.77734 0
0.76875 1.77969 0
0.75 2.0125 0
0.625 2.01875 0
0.5 2.025 0
0.759375 1.89609 0
0.632812 1.90039 0
0.50625 1.90469 0
0.76875 1.77969 0
0.640625 1.78203 0
0.5125 1.78437 0
1.025 1.775 0
0.896875 1.77734 0
0.76875 1.77969 0
1.0375 1.6625 0
0.907813 1.66289 0
0.778125 1.66328 0
1.05 1.55 0
0.91875 1.54844 0
0.7875 1.54688 0
0.76875 1.77969 0
0.640625 1.78203 0
0.5125 1.78437 0
0.778125 1.66328 0
0.648438 1.66367 0
0.51875 1.66406 0
0.7875 1.54688 0
0.65625 1.54531 0
0.525 1.54375 0
0.5 2.025 0
0.375 2.03125 0
0.25 2.0375 0
0.50625 1.90469 0
0.379687 1.90898 0
0.253125 1.91328 0
0.5125 1.78437 0
0.384375 1.78672 0
0.25625 1.78906 0
0.25 2.0375 0
0.125 2.04375 0
0 2.05 0
0.253125 1.91328 0
0.126562 1.91758 0
0 1.92187 0
0.25625 1.78906 0
0.128125 1.79141 0
0 1.79375 0
0.5125 1.78437 0
0.384375 1.78672 0
0.25625 1.78906 0
0.51875 1.66406 0
0.389062 1.66445 0
0.259375 1.66484 0
0.525 1.54375 0
0.39375 1.54219 0
0.2625 1.54062 0
0.25625 1.78906 0
0.128125 1.79141 0
0 1.79375 0
0.259375 1.66484 0
0.129688 1.66523 0
0 1.66562 0
0.2625 1.54062 0
0.13125 1.53906 0
0 1.5375 0
1.05 1.55 0
0.91875 1.54844 0
0.7875 1.54688 0
1.0625 1.4375 0
0.929688 1.43398 0
0.796875 1.43047 0
1.075 1.325 0
0.940625 1.31953 0
0.80625 1.31406 0
0.7875 1.54688 0
0.65625 1.54531 0
0.525 1.54375 0
0.796875 1.43047 0
0.664062 1.42695 0
0.53125 1.42344 0
0.80625 1.31406 0
0.671875 1.30859 0
0.5375 1.30312 0
1.075 1.325 0
0.940625 1.31953 0
0.80625 1.31406 0
1.0875 1.2125 0
0.951563 1.20508 0
0.815625 1.19766 0
1.1 1.1 0
0.9625 1.09063 0
0.825 1.08125 0
0.80625 1.31406 0
0.671875 1.30859 0
0.5375 1.30312 0
0.815625 1.19766 0
0.679688 1.19023 0
0.54375 1.18281 0
0.825 1.08125 0
0.6875 1.07187 0
0.55 1.0625 0
0.525 1.54375 0
0.39375 1.54219 0
0.2625 1.54062 0
0.53125 1.42344 0
0.398438 1.41992 0
0.265625 1.41641 0
0.5375 1.30312 0
0.403125 1.29766 0
0.26875 1.29219 0
0.2625 1.54062 0
0.13125 1.53906 0
0 1.5375 0
0.265625 1.41641 0
0.132812 1.41289 0
0 1.40937 0
0.26875 1.29219 0
0.134375 1.28672 0
0 1.28125 0
0.5375 1.30312 0
0.403125 1.29766 0
0.26875 1.29219 0
0.54375 1.18281 0
0.407813 1.17539 0
0.271875 1.16797 0
0.55 1.0625 0
0.4125 1.05313 0
0.275 1.04375 0
0.26875 1.29219 0
0.134375 1.28672 0
0 1.28125 0
0.271875 1.16797 0
0.135938 1.16055 0
0 1.15312 0
0.275 1.04375 0
0.1375 1.03437 0
0 1.025 0
2.9 1.1 0
2.7875 1.0875 0
2.675 1.075 0
2.9125 0.9625 0
2.79844 0.951563 0
2.68438 0.940625 0
2.925 0.825 0
2.80938 0.815625 0
2.69375 0.80625 0
2.675 1.075 0
2.5625 1.0625 0
2.45 1.05 0
2.68438 0.940625 0
2.57031 0.929688 0
2.45625 0.91875 0
2.69375 0.80625 0
2.57812 0.796875 0
2.4625 0.7875 0
2.925 0.825 0
2.80938 0.815625 0
2.69375 0.80625 0
2.9375 0.6875 0
2.82031 0.679688 0
2.70312 0.671875 0
2.95 0.55 0
2.83125 0.54375 0
2.7125 0.5375 0
2.69375 0.80625 0
2.57812 0.796875 0
2.4625 0.7875 0
2.70312 0.671875 0
2.58594 0.664062 0
2.46875 0.65625 0
2.7125 0.5375 0
2.59375 0.53125 0
2.475 0.525 0
2.45 1.05 0
2.3375 1.0375 0
2.225 1.025 0
2.45625 0.91875 0
2.34219 0.907813 0
2.22813 0.896875 0
2.4625 0.7875 0
2.34688 0.778125 0
2.23125 0.76875 0
2.225 1.025 0
2.1125 1.0125 0
2 1 0
2.22813 0.896875 0
2.11406 0.885938 0
2 0.875 0
2.23125 0.76875 0
2.11563 0.759375 0
2 0.75 0
2.4625 0.7875 0
2.34688 0.778125 0
2.23125 0.76875 0
2.46875 0.65625 0
2.35156 0.648438 0
2.23438 0.640625 0
2.475 0.525 0
2.35625 0.51875 0
2.2375 0.5125 0
2.23125 0.76875 0
2.11563 0.759375 0
2 0.75 0
2.23438 0.640625 0
2.11719 0.632812 0
2 0.625 0
2.2375 0.5125 0
2.11875 0.50625 0
2 0.5 0
2.95 0.55 0
2.83125 0.54375 0
2.7125 0.5375 0
2.9625 0.4125 0
2.84219 0.407813 0
2.72188 0.403125 0
2.975 0.275 0
2.85313 0.271875 0
2.73125 0.26875 0
2.7125 0.5375 0
2.59375 0.53125 0
2.475 0.525 0
2.72188 0.403125 0
2.60156 0.398438 0
2.48125 0.39375 0
2.73125 0.26875 0
2.60938 0.265625 0
2.4875 0.2625 0
2.975 0.275 0
2.85313 0.271875 0
2.73125 0.26875 0
2.9875 0.1375 0
2.86406 0.135938 0
2.74063 0.134375 0
3 0 0
2.875 0 0
2.75 0 0
2.73125 0.26875 0
2.60938 0.265625 0
2.4875 0.2625 0
2.74063 0.134375 0
2.61719 0.132812 0
2.49375 0.13125 0
2.75 0 0
2.625 0 0
2.5 0 0
2.475 0.525 0
2.35625 0.51875 0
2.2375 0.5125 0
2.48125 0.39375 0
2.36094 0.389063 0
2.24062 0.384375 0
2.4875 0.2625 0
2.36562 0.259375 0
2.24375 0.25625 0
2.2375 0.5125 0
2.11875 0.50625 0
2 0.5 0
2.24062 0.384375 0
2.12031 0.379687 0
2 0.375 0
2.24375 0.25625 0
2.12188 0.253125 0
2 0.25 0
2.4875 0.2625 0
2.36562 0.259375 0
2.24375 0.25625 0
2.49375 0.13125 0
2.37031 0.129688 0
2.24688 0.128125 0
2.5 0 0
2.375 0 0
2.25 0 0
2.24375 0.25625 0
2.12188 0.253125 0
2 0.25 0
2.24688 0.128125 0
2.12344 0.126562 0
2 0.125 0
2.25 0 0
2.125 0 0
2 0 0
4 1 0
3.8625 1.0125 0
3.725 1.025 0
4 0.875 0
3.86406 0.885938 0
3.72813 0.896875 0
4 0.75 0
3.86563 0.759375 0
3.73125 0.76875 0
3.725 1.025 0
3.5875 1.0375 0
3.45 1.05 0
3.72813 0.896875 0
3.59219 0.907813 0
3.45625 0.91875 0
3.73125 0.76875 0
3.59688 0.778125 0
3.4625 0.7875 0
4 0.75 0
3.86563 0.759375 0
3.73125 0.76875 0
4 0.625 0
3.86719 0.632812 0
[...]
POINT_DATA 8640
VECTORS v double
1.20202 -0.220709 0
1.18633 -0.175308 0
1.17196 -0.134108 0
1.13007 -0.199002 0
1.10564 -0.159922 0
1.08906 -0.127704 0
1.04372 -0.173991 0
1.01708 -0.141587 0
0.993281 -0.113046 0
1.17196 -0.134108 0
1.16314 -0.104598 0
1.15396 -0.0773506 0
1.08906 -0.127704 0
1.0721 -0.0991617 0
1.06155 -0.0762829 0
0.993281 -0.113046 0
0.973103 -0.0886435 0
0.956793 -0.0680171 0
1.04372 -0.173991 0
1.01708 -0.141587 0
0.993281 -0.113046 0
0.932453 -0.136606 0
0.901771 -0.112504 0
0.875347 -0.0914755 0
0.799786 -0.107094 0
0.769445 -0.0890539 0
0.742882 -0.0728446 0
0.993281 -0.113046 0
0.973103 -0.0886435 0
0.956793 -0.0680171 0
0.875347 -0.0914755 0
0.853121 -0.0730776 0
0.834682 -0.056755 0
0.742882 -0.0728446 0
0.720242 -0.0583114 0
0.701311 -0.0454715 0
1.15396 -0.0773506 0
1.14735 -0.0570572 0
1.13978 -0.0364861 0
1.06155 -0.0762829 0
1.04927 -0.0557092 0
1.04229 -0.0372805 0
0.956793 -0.0680171 0
0.942546 -0.0495078 0
0.93267 -0.0329773 0
1.13978 -0.0364861 0
1.13288 -0.018936 0
1.125 0 0
1.04229 -0.0372805 0
1.03174 -0.0185651 0
1.02539 0 0
0.93267 -0.0329773 0
0.921154 -0.0164102 0
0.914062 0 0
0.956793 -0.0680171 0
0.942546 -0.0495078 0
0.93267 -0.0329773 0
0.834682 -0.056755 0
0.819653 -0.0415906 0
0.808543 -0.0281832 0
0.701311 -0.0454715 0
0.685469 -0.0336775 0
0.673522 -0.0230763 0
0.93267 -0.0329773 0
0.921154 -0.0164102 0
0.914062 0 0
0.808543 -0.0281832 0
0.798 -0.0146585 0
0.791016 0 0
0.673522 -0.0230763 0
0.662995 -0.0120722 0
0.65625 0 0
0.799786 -0.107094 0
0.769445 -0.0890539 0
0.742882 -0.0728446 0
0.650715 -0.0716286 0
0.620083 -0.0596043 0
0.59321 -0.048693 0
0.478756 -0.0426296 0
0.450544 -0.0357627 0
0.426052 -0.0295517 0
0.742882 -0.0728446 0
0.720242 -0.0583114 0
0.701311 -0.0454715 0
0.59321 -0.048693 0
0.570655 -0.0389643 0
0.551855 -0.030521 0
0.426052 -0.0295517 0
0.405561 -0.0239781 0
0.388691 -0.0191648 0
0.478756 -0.0426296 0
0.450544 -0.0357627 0
0.426052 -0.0295517 0
0.274793 -0.0123763 0
0.253612 -0.0101589 0
0.235904 -0.00829249 0
0 0 0
0 0 0
0 0 0
0.426052 -0.0295517 0
0.405561 -0.0239781 0
0.388691 -0.0191648 0
0.235904 -0.00829249 0
0.22071 -0.0066273 0
0.208504 -0.0053019 0
0 0 0
0 0 0
0 0 0
0.701311 -0.0454715 0
0.685469 -0.0336775 0
0.673522 -0.0230763 0
0.551855 -0.030521 0
0.536406 -0.0227519 0
0.524765 -0.0156266 0
0.388691 -0.0191648 0
0.374862 -0.0146697 0
0.364553 -0.010595 0
0.673522 -0.0230763 0
0.662995 -0.0120722 0
0.65625 0 0
0.524765 -0.0156266 0
0.515313 -0.00802518 0
0.509766 0 0
0.364553 -0.010595 0
0.356276 -0.00604745 0
0.351562 0 0
0.388691 -0.0191648 0
0.374862 -0.0146697 0
0.364553 -0.010595 0
0.208504 -0.0053019 0
0.198211 -0.0039394 0
0.190763 -0.00279456 0
0 0 0
0 0 0
0 0 0
0.364553 -0.010595 0
0.356276 -0.00604745 0
0.351562 0 0
0.190763 -0.00279456 0
0.184638 -0.00142589 0
0.181641 0 0
0 0 0
0 0 0
0 0 0
1.61571 -0.401807 0
1.53488 -0.425877 0
1.47107 -0.430483 0
1.47712 -0.324225 0
1.41808 -0.341467 0
1.35589 -0.347316 0
1.34951 -0.260567 0
1.30402 -0.279912 0
1.25528 -0.288276 0
1.47107 -0.430483 0
1.39388 -0.411928 0
1.33354 -0.383159 0
1.35589 -0.347316 0
1.29906 -0.339645 0
1.24464 -0.322922 0
1.25528 -0.288276 0
1.21027 -0.285557 0
1.1631 -0.272614 0
1.34951 -0.260567 0
1.30402 -0.279912 0
1.25528 -0.288276 0
1.23643 -0.204318 0
1.19254 -0.213799 0
1.14623 -0.217084 0
1.08258 -0.144634 0
1.03998 -0.153566 0
0.995868 -0.158172 0
1.25528 -0.288276 0
1.21027 -0.285557 0
1.1631 -0.272614 0
1.14623 -0.217084 0
1.10081 -0.213725 0
1.05535 -0.204534 0
0.995868 -0.158172 0
0.955186 -0.158572 0
0.91482 -0.15429 0
1.33354 -0.383159 0
1.28095 -0.34556 0
1.24539 -0.303548 0
1.24464 -0.322922 0
1.20476 -0.295793 0
1.17026 -0.265458 0
1.1631 -0.272614 0
1.12676 -0.252407 0
1.09155 -0.227464 0
1.24539 -0.303548 0
1.21857 -0.262448 0
1.20202 -0.220709 0
1.17026 -0.265458 0
1.14665 -0.231303 0
1.13007 -0.199002 0
1.09155 -0.227464 0
1.06651 -0.200916 0
1.04372 -0.173991 0
1.1631 -0.272614 0
1.12676 -0.252407 0
1.09155 -0.227464 0
1.05535 -0.204534 0
1.01798 -0.190885 0
0.982979 -0.174191 0
0.91482 -0.15429 0
0.880902 -0.146037 0
0.848966 -0.134835 0
1.09155 -0.227464 0
1.06651 -0.200916 0
1.04372 -0.173991 0
0.982979 -0.174191 0
0.956015 -0.155943 0
0.932453 -0.136606 0
0.848966 -0.134835 0
0.82296 -0.121574 0
0.799786 -0.107094 0
1.08258 -0.144634 0
1.03998 -0.153566 0
0.995868 -0.158172 0
0.931534 -0.102638 0
0.892128 -0.108384 0
0.850707 -0.110848 0
0.757438 -0.0544875 0
0.718605 -0.0587325 0
0.677239 -0.060979 0
0.995868 -0.158172 0
0.955186 -0.158572 0
0.91482 -0.15429 0
0.850707 -0.110848 0
0.811478 -0.109921 0
0.771625 -0.105749 0
0.677239 -0.060979 0
0.638255 -0.0613346 0
0.598755 -0.0597776 0
0.757438 -0.0544875 0
0.718605 -0.0587325 0
0.677239 -0.060979 0
0.481481 -0.0169383 0
0.455731 -0.018514 0
0.42563 -0.0192864 0
0 0 0
0 0 0
0 0 0
0.677239 -0.060979 0
0.638255 -0.0613346 0
0.598755 -0.0597776 0
0.42563 -0.0192864 0
0.39766 -0.0194098 0
0.367731 -0.0186711 0
0 0 0
0 0 0
0 0 0
0.91482 -0.15429 0
0.880902 -0.146037 0
0.848966 -0.134835 0
0.771625 -0.105749 0
0.736909 -0.099157 0
0.703591 -0.0907247 0
0.598755 -0.0597776 0
0.564277 -0.0567888 0
0.531313 -0.0527077 0
0.848966 -0.134835 0
0.82296 -0.121574 0
0.799786 -0.107094 0
0.703591 -0.0907247 0
0.675747 -0.0815216 0
0.650715 -0.0716286 0
0.531313 -0.0527077 0
0.503652 -0.0479971 0
0.478756 -0.0426296 0
0.598755 -0.0597776 0
0.564277 -0.0567888 0
0.531313 -0.0527077 0
0.367731 -0.0186711 0
0.341562 -0.0175476 0
0.316132 -0.0159162 0
0 0 0
0 0 0
0 0 0
0.531313 -0.0527077 0
0.503652 -0.0479971 0
0.478756 -0.0426296 0
0.316132 -0.0159162 0
0.294269 -0.0142627 0
0.274793 -0.0123763 0
0 0 0
0 0 0
0 0 0
1.2517 0.0868672 0
1.32343 0.078358 0
1.38002 0.0666328 0
1.25368 0.0150912 0
1.3202 0.0227214 0
1.37653 0.0265166 0
1.23609 -0.0533377 0
1.30136 -0.029515 0
1.3566 -0.0136356 0
1.38002 0.0666328 0
1.42087 0.0554437 0
1.4511 0.0429441 0
1.37653 0.0265166 0
1.41533 0.024484 0
1.44635 0.0206179 0
1.3566 -0.0136356 0
1.39524 -0.00615807 0
1.42629 -0.00218227 0
1.23609 -0.0533377 0
1.30136 -0.029515 0
1.3566 -0.0136356 0
1.25004 -0.127802 0
1.3021 -0.0860414 0
1.34759 -0.0562123 0
1.2547 -0.164968 0
1.29176 -0.117896 0
1.32593 -0.0822906 0
1.3566 -0.0136356 0
1.39524 -0.00615807 0
1.42629 -0.00218227 0
1.34759 -0.0562123 0
1.37931 -0.0388794 0
1.40599 -0.026553 0
1.32593 -0.0822906 0
1.35065 -0.0599089 0
1.37266 -0.0421849 0
1.4511 0.0429441 0
1.4734 0.0316446 0
1.48731 0.020027 0
1.44635 0.0206179 0
1.46755 0.0151209 0
1.48211 0.00971653 0
1.42629 -0.00218227 0
1.44823 -0.00099408 0
1.46374 -0.000558481 0
1.48731 0.020027 0
1.49741 0.00984934 0
1.5 0 0
1.48211 0.00971653 0
1.49105 0.00477622 0
1.49414 0 0
1.46374 -0.000558481 0
1.47317 -0.000353857 0
1.47656 0 0
1.42629 -0.00218227 0
1.44823 -0.00099408 0
1.46374 -0.000558481 0
1.40599 -0.026553 0
1.42405 -0.0189189 0
1.43768 -0.0123503 0
1.37266 -0.0421849 0
1.3872 -0.0300172 0
1.39907 -0.0191206 0
1.46374 -0.000558481 0
1.47317 -0.000353857 0
1.47656 0 0
1.43768 -0.0123503 0
1.44454 -0.00648368 0
1.44727 0 0
1.39907 -0.0191206 0
1.4041 -0.00985296 0
1.40625 0 0
1.2547 -0.164968 0
1.29176 -0.117896 0
1.32593 -0.0822906 0
1.25259 -0.209311 0
1.27828 -0.155679 0
1.30023 -0.113092 0
1.25273 -0.221397 0
1.26124 -0.168062 0
1.26902 -0.124642 0
1.32593 -0.0822906 0
1.35065 -0.0599089 0
1.37266 -0.0421849 0
1.30023 -0.113092 0
1.31805 -0.0851567 0
1.33291 -0.0613981 0
1.26902 -0.124642 0
1.27689 -0.0945139 0
1.28405 -0.0686067 0
1.25273 -0.221397 0
1.26124 -0.168062 0
1.26902 -0.124642 0
1.22644 -0.227761 0
1.22745 -0.180792 0
1.22173 -0.135785 0
1.20202 -0.220709 0
1.18633 -0.175308 0
1.17196 -0.134108 0
1.26902 -0.124642 0
1.27689 -0.0945139 0
1.28405 -0.0686067 0
1.22173 -0.135785 0
1.22422 -0.106201 0
1.22217 -0.0775416 0
1.17196 -0.134108 0
1.16314 -0.104598 0
1.15396 -0.0773506 0
1.37266 -0.0421849 0
1.3872 -0.0300172 0
1.39907 -0.0191206 0
1.33291 -0.0613981 0
1.34299 -0.0445101 0
1.3505 -0.0289797 0
1.28405 -0.0686067 0
1.28796 -0.0496699 0
1.29104 -0.0317636 0
1.39907 -0.0191206 0
1.4041 -0.00985296 0
1.40625 0 0
1.3505 -0.0289797 0
1.35324 -0.0155458 0
1.35352 0 0
1.29104 -0.0317636 0
1.2905 -0.0164003 0
1.28906 0 0
1.28405 -0.0686067 0
1.28796 -0.0496699 0
1.29104 -0.0317636 0
1.22217 -0.0775416 0
1.22277 -0.057895 0
1.22001 -0.0369774 0
1.15396 -0.0773506 0
1.14735 -0.0570572 0
1.13978 -0.0364861 0
1.29104 -0.0317636 0
1.2905 -0.0164003 0
1.28906 0 0
1.22001 -0.0369774 0
1.21772 -0.0198172 0
1.21289 0 0
1.13978 -0.0364861 0
1.13288 -0.018936 0
1.125 0 0
1.7527 -0.0467747 0
1.76879 -0.0800367 0
1.83357 -0.115947 0
1.74722 -0.100728 0
1.75674 -0.106946 0
1.74891 -0.125842 0
1.67858 -0.0734921 0
1.64064 -0.0819863 0
1.62251 -0.0970933 0
1.83357 -0.115947 0
1.81894 -0.169813 0
1.84386 -0.219184 0
1.74891 -0.125842 0
1.74143 -0.155504 0
1.7174 -0.195436 0
1.62251 -0.0970933 0
1.5855 -0.12299 0
1.55836 -0.153686 0
1.67858 -0.0734921 0
1.64064 -0.0819863 0
1.62251 -0.0970933 0
1.53028 -0.0593411 0
1.50535 -0.0772077 0
1.48185 -0.0963135 0
1.408 -0.0393985 0
1.38082 -0.0537969 0
1.35553 -0.0678378 0
1.62251 -0.0970933 0
1.5855 -0.12299 0
1.55836 -0.153686 0
1.48185 -0.0963135 0
1.45426 -0.117124 0
1.42544 -0.138452 0
1.35553 -0.0678378 0
1.32052 -0.0825272 0
1.28493 -0.0973487 0
1.84386 -0.219184 0
1.80023 -0.280021 0
1.77823 -0.333156 0
1.7174 -0.195436 0
1.67471 -0.23885 0
1.61421 -0.275271 0
1.55836 -0.153686 0
1.51181 -0.187584 0
1.46962 -0.218525 0
1.77823 -0.333156 0
1.68047 -0.366784 0
1.61571 -0.401807 0
1.61421 -0.275271 0
1.55092 -0.305041 0
1.47712 -0.324225 0
1.46962 -0.218525 0
1.41023 -0.24205 0
1.34951 -0.260567 0
1.55836 -0.153686 0
1.51181 -0.187584 0
1.46962 -0.218525 0
1.42544 -0.138452 0
1.38631 -0.159616 0
1.34317 -0.17865 0
1.28493 -0.0973487 0
1.24015 -0.11271 0
1.19334 -0.126571 0
1.46962 -0.218525 0
1.41023 -0.24205 0
1.34951 -0.260567 0
1.34317 -0.17865 0
1.2915 -0.194373 0
1.23643 -0.204318 0
1.19334 -0.126571 0
1.14005 -0.137553 0
1.08258 -0.144634 0
1.408 -0.0393985 0
1.38082 -0.0537969 0
1.35553 -0.0678378 0
1.24333 -0.0135392 0
1.21601 -0.0267292 0
1.18715 -0.0400625 0
1.02388 0.00823939 0
1.00524 -0.00117007 0
0.984744 -0.0105537 0
1.35553 -0.0678378 0
1.32052 -0.0825272 0
1.28493 -0.0973487 0
1.18715 -0.0400625 0
1.1529 -0.0533146 0
1.11706 -0.0663079 0
0.984744 -0.0105537 0
0.95666 -0.0199122 0
0.925935 -0.0288948 0
1.02388 0.00823939 0
1.00524 -0.00117007 0
0.984744 -0.0105537 0
0.634252 0.00420025 0
0.630367 0.00108486 0
0.624512 -0.00182389 0
0 0 0
0 0 0
0 0 0
0.984744 -0.0105537 0
0.95666 -0.0199122 0
0.925935 -0.0288948 0
0.624512 -0.00182389 0
0.611133 -0.00480848 0
0.595068 -0.00763334 0
0 0 0
0 0 0
0 0 0
1.28493 -0.0973487 0
1.24015 -0.11271 0
1.19334 -0.126571 0
1.11706 -0.0663079 0
1.07516 -0.078531 0
1.03059 -0.0888522 0
0.925935 -0.0288948 0
0.888614 -0.0374562 0
0.848388 -0.0447936 0
1.19334 -0.126571 0
1.14005 -0.137553 0
1.08258 -0.144634 0
1.03059 -0.0888522 0
0.982214 -0.0969541 0
0.931534 -0.102638 0
0.848388 -0.0447936 0
0.804517 -0.0507025 0
0.757438 -0.0544875 0
0.925935 -0.0288948 0
0.888614 -0.0374562 0
0.848388 -0.0447936 0
0.595068 -0.00763334 0
0.572656 -0.010404 0
0.546138 -0.0130516 0
0 0 0
0 0 0
0 0 0
0.848388 -0.0447936 0
0.804517 -0.0507025 0
0.757438 -0.0544875 0
0.546138 -0.0130516 0
0.516145 -0.0152955 0
0.481481 -0.0169383 0
0 0 0
0 0 0
0 0 0
2.13506 0.328685 0
2.11553 0.188001 0
2.09726 0.0657581 0
1.86798 0.340676 0
1.93093 0.251878 0
1.94559 0.155203 0
1.63585 0.273629 0
1.6782 0.212505 0
1.71398 0.145661 0
2.09726 0.0657581 0
1.99926 -0.0510711 0
1.91873 -0.109221 0
1.94559 0.155203 0
1.92684 0.0631025 0
1.8691 -0.0112965 0
1.71398 0.145661 0
1.73137 0.0738679 0
1.73947 0.0140338 0
1.63585 0.273629 0
1.6782 0.212505 0
1.71398 0.145661 0
1.52901 0.243799 0
1.56543 0.191437 0
1.59439 0.142419 0
1.29594 0.188982 0
1.35844 0.161597 0
1.39981 0.129572 0
1.71398 0.145661 0
1.73137 0.0738679 0
1.73947 0.0140338 0
1.59439 0.142419 0
1.59997 0.0933116 0
1.59746 0.050286 0
1.39981 0.129572 0
1.4217 0.0926569 0
1.43192 0.0577792 0
1.91873 -0.109221 0
1.82628 -0.125152 0
1.76645 -0.10477 0
1.8691 -0.0112965 0
1.82377 -0.0582179 0
1.76455 -0.0853957 0
1.73947 0.0140338 0
1.72427 -0.0296283 0
1.70995 -0.0554479 0
1.76645 -0.10477 0
1.74362 -0.0721457 0
1.7527 -0.0467747 0
1.76455 -0.0853957 0
1.75542 -0.0924629 0
1.74722 -0.100728 0
1.70995 -0.0554479 0
1.68997 -0.0666444 0
1.67858 -0.0734921 0
1.73947 0.0140338 0
1.72427 -0.0296283 0
1.70995 -0.0554479 0
1.59746 0.050286 0
1.58178 0.0136469 0
1.56141 -0.0151361 0
1.43192 0.0577792 0
1.43112 0.0267658 0
1.42674 0.000791571 0
1.70995 -0.0554479 0
1.68997 -0.0666444 0
1.67858 -0.0734921 0
1.56141 -0.0151361 0
1.5445 -0.0378926 0
1.53028 -0.0593411 0
1.42674 0.000791571 0
1.41773 -0.0199229 0
1.408 -0.0393985 0
1.29594 0.188982 0
1.35844 0.161597 0
1.39981 0.129572 0
1.06667 0.124029 0
1.13595 0.114662 0
1.1919 0.100041 0
0.735463 0.0686037 0
0.806794 0.0698674 0
0.870743 0.0664923 0
1.39981 0.129572 0
1.4217 0.0926569 0
1.43192 0.0577792 0
1.1919 0.100041 0
1.2283 0.0816034 0
1.25114 0.0603538 0
0.870743 0.0664923 0
0.923267 0.0597048 0
0.965776 0.0498072 0
0.735463 0.0686037 0
0.806794 0.0698674 0
0.870743 0.0664923 0
0.402772 0.01179 0
0.437385 0.0140395 0
0.474547 0.0150957 0
0 0 0
0 0 0
0 0 0
0.870743 0.0664923 0
0.923267 0.0597048 0
0.965776 0.0498072 0
0.474547 0.0150957 0
0.510444 0.0155535 0
0.544646 0.0145286 0
0 0 0
0 0 0
0 0 0
1.43192 0.0577792 0
1.43112 0.0267658 0
1.42674 0.000791571 0
1.25114 0.0603538 0
1.26028 0.0402764 0
1.26039 0.0205273 0
0.965776 0.0498072 0
0.994178 0.0394155 0
1.0141 0.028506 0
1.42674 0.000791571 0
1.41773 -0.0199229 0
1.408 -0.0393985 0
1.26039 0.0205273 0
1.25384 0.00357486 0
1.24333 -0.0135392 0
1.0141 0.028506 0
1.02206 0.0187667 0
1.02388 0.00823939 0
0.965776 0.0498072 0
0.994178 0.0394155 0
1.0141 0.028506 0
0.544646 0.0145286 0
0.573801 0.0127714 0
0.599764 0.0100872 0
0 0 0
0 0 0
0 0 0
1.0141 0.028506 0
1.02206 0.0187667 0
1.02388 0.00823939 0
0.599764 0.0100872 0
0.618297 0.00717018 0
0.634252 0.00420025 0
0 0 0
0 0 0
0 0 0
0.407212 -1.16561 0
0.57204 -1.27306 0
0.468898 -1.29596 0
0.551152 -0.98743 0
0.553596 -1.20431 0
0.328116 -1.28092 0
0.808261 -0.731932 0
0.559403 -0.984677 0
0.276129 -1.25427 0
0.468898 -1.29596 0
0.50919 -1.48781 0
0.378401 -1.51398 0
0.328116 -1.28092 0
0.320051 -1.40742 0
0.119578 -1.34944 0
0.276129 -1.25427 0
0.182419 -1.22047 0
-0.0455334 -1.16257 0
0.808261 -0.731932 0
0.559403 -0.984677 0
0.276129 -1.25427 0
1.08066 -0.410483 0
0.727335 -0.70426 0
0.388548 -1.02993 0
1.37742 -0.129415 0
1.10543 -0.395786 0
0.686962 -0.608913 0
0.276129 -1.25427 0
0.182419 -1.22047 0
-0.0455334 -1.16257 0
0.388548 -1.02993 0
0.127621 -1.052 0
-0.0819406 -0.961036 0
0.686962 -0.608913 0
0.38629 -0.700856 0
0.00223075 -0.642098 0
0.378401 -1.51398 0
0.263279 -1.37057 0
0.247007 -0.840151 0
0.119578 -1.34944 0
-0.0549246 -1.18491 0
-0.0935702 -0.625076 0
-0.0455334 -1.16257 0
-0.25881 -1.09198 0
-0.298382 -0.534319 0
0.247007 -0.840151 0
0.0383306 -0.44802 0
-0.143196 -0.0551992 0
-0.0935702 -0.625076 0
-0.266114 -0.166121 0
-0.451462 0.211555 0
-0.298382 -0.534319 0
-0.443921 -0.0625135 0
-0.577938 0.265404 0
-0.0455334 -1.16257 0
-0.25881 -1.09198 0
-0.298382 -0.534319 0
-0.0819406 -0.961036 0
-0.332972 -0.845743 0
-0.408428 -0.416016 0
0.00223075 -0.642098 0
-0.218667 -0.696098 0
-0.268853 -0.297835 0
-0.298382 -0.534319 0
-0.443921 -0.0625135 0
-0.577938 0.265404 0
-0.408428 -0.416016 0
-0.545946 0.0715541 0
-0.598351 0.368516 0
-0.268853 -0.297835 0
-0.423838 0.0847901 0
-0.391967 0.276322 0
1.37742 -0.129415 0
1.10543 -0.395786 0
0.686962 -0.608913 0
1.74909 0.136992 0
1.45776 -0.199571 0
1.15317 -0.382506 0
1.98121 0.35832 0
1.83774 0.0694834 0
1.62159 -0.116804 0
0.686962 -0.608913 0
0.38629 -0.700856 0
0.00223075 -0.642098 0
1.15317 -0.382506 0
0.837561 -0.476758 0
0.45991 -0.574255 0
1.62159 -0.116804 0
1.36603 -0.231352 0
1.04858 -0.259964 0
1.98121 0.35832 0
1.83774 0.0694834 0
1.62159 -0.116804 0
1.99688 0.36716 0
1.97117 0.217591 0
1.81952 0.031158 0
2.13506 0.328685 0
2.11553 0.188001 0
2.09726 0.0657581 0
1.62159 -0.116804 0
1.36603 -0.231352 0
1.04858 -0.259964 0
1.81952 0.031158 0
1.6695 -0.108945 0
1.44791 -0.187143 0
2.09726 0.0657581 0
1.99926 -0.0510711 0
1.91873 -0.109221 0
0.00223075 -0.642098 0
-0.218667 -0.696098 0
-0.268853 -0.297835 0
0.45991 -0.574255 0
0.277071 -0.514762 0
0.0992265 -0.157309 0
1.04858 -0.259964 0
0.852723 -0.155104 0
0.621244 -0.0365978 0
-0.268853 -0.297835 0
-0.423838 0.0847901 0
-0.391967 0.276322 0
0.0992265 -0.157309 0
-0.00693332 0.0650551 0
0.0802755 0.273169 0
0.621244 -0.0365978 0
0.640693 0.117323 0
0.655303 0.180609 0
1.04858 -0.259964 0
0.852723 -0.155104 0
0.621244 -0.0365978 0
1.44791 -0.187143 0
1.35655 -0.175258 0
1.25646 -0.132005 0
1.91873 -0.109221 0
1.82628 -0.125152 0
1.76645 -0.10477 0
0.621244 -0.0365978 0
0.640693 0.117323 0
0.655303 0.180609 0
1.25646 -0.132005 0
1.31235 -0.0469109 0
1.38648 0.0139669 0
1.76645 -0.10477 0
1.74362 -0.0721457 0
1.7527 -0.0467747 0
0.948167 -0.218452 0
1.11294 -0.333775 0
1.21017 -0.451381 0
1.04428 -0.288613 0
1.14921 -0.44094 0
1.30429 -0.572321 0
1.0054 -0.375563 0
1.06781 -0.551201 0
1.26971 -0.687127 0
1.21017 -0.451381 0
1.42148 -0.535468 0
1.56759 -0.595618 0
1.30429 -0.572321 0
1.41852 -0.672028 0
1.53937 -0.739921 0
1.26971 -0.687127 0
1.3199 -0.802173 0
1.47748 -0.874092 0
1.0054 -0.375563 0
1.06781 -0.551201 0
1.26971 -0.687127 0
0.817437 -0.575108 0
0.945504 -0.70449 0
1.11607 -0.81726 0
0.666144 -0.75782 0
0.844249 -0.82075 0
1.03106 -0.946911 0
1.26971 -0.687127 0
1.3199 -0.802173 0
1.47748 -0.874092 0
1.11607 -0.81726 0
1.24847 -0.922562 0
1.45989 -1.07608 0
1.03106 -0.946911 0
1.21794 -1.09114 0
1.42475 -1.32549 0
1.56759 -0.595618 0
1.75434 -0.59868 0
1.83494 -0.543889 0
1.53937 -0.739921 0
1.65563 -0.752031 0
1.83387 -0.731674 0
1.47748 -0.874092 0
1.71542 -0.927621 0
2.09671 -0.91002 0
1.83494 -0.543889 0
1.90392 -0.464596 0
1.97017 -0.379123 0
1.83387 -0.731674 0
2.03921 -0.675518 0
2.22944 -0.555399 0
2.09671 -0.91002 0
2.22962 -0.749127 0
2.27341 -0.530154 0
1.47748 -0.874092 0
1.71542 -0.927621 0
2.09671 -0.91002 0
1.45989 -1.07608 0
1.77909 -1.17385 0
1.98879 -1.05876 0
1.42475 -1.32549 0
1.62886 -1.32418 0
1.67676 -1.11036 0
2.09671 -0.91002 0
2.22962 -0.749127 0
2.27341 -0.530154 0
1.98879 -1.05876 0
1.89277 -0.831433 0
1.73151 -0.530924 0
1.67676 -1.11036 0
1.50803 -0.814415 0
1.25103 -0.3422 0
0.666144 -0.75782 0
0.844249 -0.82075 0
1.03106 -0.946911 0
0.514928 -0.950774 0
0.764217 -0.995527 0
0.916041 -1.10874 0
0.434411 -1.09566 0
0.702462 -1.12982 0
0.747414 -1.20525 0
1.03106 -0.946911 0
1.21794 -1.09114 0
1.42475 -1.32549 0
0.916041 -1.10874 0
1.0846 -1.31415 0
1.19439 -1.50858 0
0.747414 -1.20525 0
0.895565 -1.47901 0
0.959674 -1.64238 0
0.434411 -1.09566 0
0.702462 -1.12982 0
0.747414 -1.20525 0
0.378567 -1.16471 0
0.619473 -1.22834 0
0.603713 -1.27087 0
0.407212 -1.16561 0
0.57204 -1.27306 0
0.468898 -1.29596 0
0.747414 -1.20525 0
0.895565 -1.47901 0
0.959674 -1.64238 0
0.603713 -1.27087 0
0.716472 -1.54266 0
0.675388 -1.58172 0
0.468898 -1.29596 0
0.50919 -1.48781 0
0.378401 -1.51398 0
1.42475 -1.32549 0
1.62886 -1.32418 0
1.67676 -1.11036 0
1.19439 -1.50858 0
1.30141 -1.39093 0
1.33332 -1.06487 0
0.959674 -1.64238 0
0.995736 -1.43682 0
0.97008 -0.977475 0
1.67676 -1.11036 0
1.50803 -0.814415 0
1.25103 -0.3422 0
1.33332 -1.06487 0
1.13222 -0.647291 0
0.911641 -0.103706 0
0.97008 -0.977475 0
0.719104 -0.50529 0
0.54094 0.0497037 0
0.959674 -1.64238 0
0.995736 -1.43682 0
0.97008 -0.977475 0
0.675388 -1.58172 0
0.615166 -1.36926 0
0.568431 -0.877353 0
0.378401 -1.51398 0
0.263279 -1.37057 0
0.247007 -0.840151 0
0.97008 -0.977475 0
0.719104 -0.50529 0
0.54094 0.0497037 0
0.568431 -0.877353 0
0.326858 -0.443637 0
0.16958 0.00428052 0
0.247007 -0.840151 0
0.0383306 -0.44802 0
-0.143196 -0.0551992 0
0 0 0
0 0 0
0 0 0
0.188425 -0.00700627 0
0.204575 -0.0122258 0
0.226531 -0.0170855 0
0.491462 -0.00154219 0
0.511457 -0.0198601 0