# vtk DataFile Version 3.0
#This file was generated by the deal.II library on 2025/1/4 at 10:02:37
ASCII
DATASET UNSTRUCTURED_GRID

POINTS 8640 double
1.1 1.1 0
0.9625 1.09063 0
0.825 1.08125 0
1.0875 0.9625 0
0.951563 0.954297 0
0.815625 0.946094 0
1.075 0.825 0
0.940625 0.817969 0
0.80625 0.810937 0
0.825 1.08125 0
0.6875 1.07187 0
0.55 1.0625 0
0.815625 0.946094 0
0.679688 0.937891 0
0.54375 0.929688 0
0.80625 0.810937 0
0.671875 0.803906 0
0.5375 0.796875 0
1.075 0.825 0
0.940625 0.817969 0
0.80625 0.810937 0
1.0625 0.6875 0
0.929688 0.681641 0
0.796875 0.675781 0
1.05 0.55 0
0.91875 0.545313 0
0.7875 0.540625 0
0.80625 0.810937 0
0.671875 0.803906 0
0.5375 0.796875 0
0.796875 0.675781 0
0.664062 0.669922 0
0.53125 0.664062 0
0.7875 0.540625 0
0.65625 0.535937 0
0.525 0.53125 0
0.55 1.0625 0
0.4125 1.05313 0
0.275 1.04375 0
0.54375 0.929688 0
0.407813 0.921484 0
0.271875 0.913281 0
0.5375 0.796875 0
0.403125 0.789844 0
0.26875 0.782813 0
0.275 1.04375 0
0.1375 1.03437 0
0 1.025 0
0.271875 0.913281 0
0.135938 0.905078 0
0 0.896875 0
0.26875 0.782813 0
0.134375 0.775781 0
0 0.76875 0
0.5375 0.796875 0
0.403125 0.789844 0
0.26875 0.782813 0
0.53125 0.664062 0
0.398438 0.658203 0
0.265625 0.652344 0
0.525 0.53125 0
0.39375 0.526563 0
0.2625 0.521875 0
0.26875 0.782813 0
0.134375 0.775781 0
0 0.76875 0
0.265625 0.652344 0
0.132812 0.646484 0
0 0.640625 0
0.2625 0.521875 0
0.13125 0.517187 0
0 0.5125 0
1.05 0.55 0
0.91875 0.545313 0
0.7875 0.540625 0
1.0375 0.4125 0
0.907812 0.408984 0
0.778125 0.405469 0
1.025 0.275 0
0.896875 0.272656 0
0.76875 0.270313 0
0.7875 0.540625 0
0.65625 0.535937 0
0.525 0.53125 0
0.778125 0.405469 0
0.648438 0.401953 0
0.51875 0.398438 0
0.76875 0.270313 0
0.640625 0.267969 0
0.5125 0.265625 0
1.025 0.275 0
0.896875 0.272656 0
0.76875 0.270313 0
1.0125 0.1375 0
0.885937 0.136328 0
0.759375 0.135156 0
1 0 0
0.875 0 0
0.75 0 0
0.76875 0.270313 0
0.640625 0.267969 0
0.5125 0.265625 0
0.759375 0.135156 0
0.632812 0.133984 0
0.50625 0.132812 0
0.75 0 0
0.625 0 0
0.5 0 0
0.525 0.53125 0
0.39375 0.526563 0
0.2625 0.521875 0
0.51875 0.398438 0
0.389062 0.394922 0
0.259375 0.391406 0
0.5125 0.265625 0
0.384375 0.263281 0
0.25625 0.260937 0
0.2625 0.521875 0
0.13125 0.517187 0
0 0.5125 0
0.259375 0.391406 0
0.129688 0.387891 0
0 0.384375 0
0.25625 0.260937 0
0.128125 0.258594 0
0 0.25625 0
0.5125 0.265625 0
0.384375 0.263281 0
0.25625 0.260937 0
0.50625 0.132812 0
0.379687 0.131641 0
0.253125 0.130469 0
0.5 0 0
0.375 0 0
0.25 0 0
0.25625 0.260937 0
0.128125 0.258594 0
0 0.25625 0
0.253125 0.130469 0
0.126562 0.129297 0
0 0.128125 0
0.25 0 0
0.125 0 0
0 0 0
2 1 0
1.8875 1.0125 0
1.775 1.025 0
2 0.875 0
1.88594 0.885938 0
1.77188 0.896875 0
2 0.75 0
1.88437 0.759375 0
1.76875 0.76875 0
1.775 1.025 0
1.6625 1.0375 0
1.55 1.05 0
1.77188 0.896875 0
1.65781 0.907813 0
1.54375 0.91875 0
1.76875 0.76875 0
1.65313 0.778125 0
1.5375 0.7875 0
2 0.75 0
1.88437 0.759375 0
1.76875 0.76875 0
2 0.625 0
1.88281 0.632812 0
1.76562 0.640625 0
2 0.5 0
1.88125 0.50625 0
1.7625 0.5125 0
1.76875 0.76875 0
1.65313 0.778125 0
1.5375 0.7875 0
1.76562 0.640625 0
1.64844 0.648438 0
1.53125 0.65625 0
1.7625 0.5125 0
1.64375 0.51875 0
1.525 0.525 0
1.55 1.05 0
1.4375 1.0625 0
1.325 1.075 0
1.54375 0.91875 0
1.42969 0.929688 0
1.31563 0.940625 0
1.5375 0.7875 0
1.42188 0.796875 0
1.30625 0.80625 0
1.325 1.075 0
1.2125 1.0875 0
1.1 1.1 0
1.31563 0.940625 0
1.20156 0.951563 0
1.0875 0.9625 0
1.30625 0.80625 0
1.19063 0.815625 0
1.075 0.825 0
1.5375 0.7875 0
1.42188 0.796875 0
1.30625 0.80625 0
1.53125 0.65625 0
1.41406 0.664062 0
1.29688 0.671875 0
1.525 0.525 0
1.40625 0.53125 0
1.2875 0.5375 0
1.30625 0.80625 0
1.19063 0.815625 0
1.075 0.825 0
1.29688 0.671875 0
1.17969 0.679688 0
1.0625 0.6875 0
1.2875 0.5375 0
1.16875 0.54375 0
1.05 0.55 0
2 0.5 0
1.88125 0.50625 0
1.7625 0.5125 0
2 0.375 0
1.87969 0.379687 0
1.75938 0.384375 0
2 0.25 0
1.87813 0.253125 0
1.75625 0.25625 0
1.7625 0.5125 0
1.64375 0.51875 0
1.525 0.525 0
1.75938 0.384375 0
1.63906 0.389063 0
1.51875 0.39375 0
1.75625 0.25625 0
1.63438 0.259375 0
1.5125 0.2625 0
2 0.25 0
1.87813 0.253125 0
1.75625 0.25625 0
2 0.125 0
1.87656 0.126562 0
1.75313 0.128125 0
2 0 0
1.875 0 0
1.75 0 0
1.75625 0.25625 0
1.63438 0.259375 0
1.5125 0.2625 0
1.75313 0.128125 0
1.62969 0.129688 0
1.50625 0.13125 0
1.75 0 0
1.625 0 0
1.5 0 0
1.525 0.525 0
1.40625 0.53125 0
1.2875 0.5375 0
1.51875 0.39375 0
1.39844 0.398438 0
1.27813 0.403125 0
1.5125 0.2625 0
1.39062 0.265625 0
1.26875 0.26875 0
1.2875 0.5375 0
1.16875 0.54375 0
1.05 0.55 0
1.27813 0.403125 0
1.15781 0.407813 0
1.0375 0.4125 0
1.26875 0.26875 0
1.14688 0.271875 0
1.025 0.275 0
1.5125 0.2625 0
1.39062 0.265625 0
1.26875 0.26875 0
1.50625 0.13125 0
1.38281 0.132812 0
1.25937 0.134375 0
1.5 0 0
1.375 0 0
1.25 0 0
1.26875 0.26875 0
1.14688 0.271875 0
1.025 0.275 0
1.25937 0.134375 0
1.13594 0.135938 0
1.0125 0.1375 0
1.25 0 0
1.125 0 0
1 0 0
1 2 0
0.875 2.00625 0
0.75 2.0125 0
1.0125 1.8875 0
0.885938 1.8918 0
0.759375 1.89609 0
1.025 1.775 0
0.896875 1.77734 0
0.76875 1.77969 0
0.75 2.0125 0
0.625 2.01875 0
0.5 2.025 0
0.759375 1.89609 0
0.632812 1.90039 0
0.50625 1.90469 0
0.76875 1.77969 0
0.640625 1.78203 0
0.5125 1.78437 0
1.025 1.775 0
0.896875 1.77734 0
0.76875 1.77969 0
1.0375 1.6625 0
0.907813 1.66289 0
0.778125 1.66328 0
1.05 1.55 0
0.91875 1.54844 0
0.7875 1.54688 0
0.76875 1.77969 0
0.640625 1.78203 0
0.5125 1.78437 0
0.778125 1.66328 0
0.648438 1.66367 0
0.51875 1.66406 0
0.7875 1.54688 0
0.65625 1.54531 0
0.525 1.54375 0
0.5 2.025 0
0.375 2.03125 0
0.25 2.0375 0
0.50625 1.90469 0
0.379687 1.90898 0
0.253125 1.91328 0
0.5125 1.78437 0
0.384375 1.78672 0
0.25625 1.78906 0
0.25 2.0375 0
0.125 2.04375 0
0 2.05 0
0.253125 1.91328 0
0.126562 1.91758 0
0 1.92187 0
0.25625 1.78906 0
0.128125 1.79141 0
0 1.79375 0
0.5125 1.78437 0
0.384375 1.78672 0
0.25625 1.78906 0
0.51875 1.66406 0
0.389062 1.66445 0
0.259375 1.66484 0
0.525 1.54375 0
0.39375 1.54219 0
0.2625 1.54062 0
0.25625 1.78906 0
0.128125 1.79141 0
0 1.79375 0
0.259375 1.66484 0
0.129688 1.66523 0
0 1.66562 0
0.2625 1.54062 0
0.13125 1.53906 0
0 1.5375 0
1.05 1.55 0
0.91875 1.54844 0
0.7875 1.54688 0
1.0625 1.4375 0
0.929688 1.43398 0
0.796875 1.43047 0
1.075 1.325 0
0.940625 1.31953 0
0.80625 1.31406 0
0.7875 1.54688 0
0.65625 1.54531 0
0.525 1.54375 0
0.796875 1.43047 0
0.664062 1.42695 0
0.53125 1.42344 0
0.80625 1.31406 0
0.671875 1.30859 0
0.5375 1.30312 0
1.075 1.325 0
0.940625 1.31953 0
0.80625 1.31406 0
1.0875 1.2125 0
0.951563 1.20508 0
0.815625 1.19766 0
1.1 1.1 0
0.9625 1.09063 0
0.825 1.08125 0
0.80625 1.31406 0
0.671875 1.30859 0
0.5375 1.30312 0
0.815625 1.19766 0
0.679688 1.19023 0
0.54375 1.18281 0
0.825 1.08125 0
0.6875 1.07187 0
0.55 1.0625 0
0.525 1.54375 0
0.39375 1.54219 0
0.2625 1.54062 0
0.53125 1.42344 0
0.398438 1.41992 0
0.265625 1.41641 0
0.5375 1.30312 0
0.403125 1.29766 0
0.26875 1.29219 0
0.2625 1.54062 0
0.13125 1.53906 0
0 1.5375 0
0.265625 1.41641 0
0.132812 1.41289 0
0 1.40937 0
0.26875 1.29219 0
0.134375 1.28672 0
0 1.28125 0
0.5375 1.30312 0
0.403125 1.29766 0
0.26875 1.29219 0
0.54375 1.18281 0
0.407813 1.17539 0
0.271875 1.16797 0
0.55 1.0625 0
0.4125 1.05313 0
0.275 1.04375 0
0.26875 1.29219 0
0.134375 1.28672 0
0 1.28125 0
0.271875 1.16797 0
0.135938 1.16055 0
0 1.15312 0
0.275 1.04375 0
0.1375 1.03437 0
0 1.025 0
2.9 1.1 0
2.7875 1.0875 0
2.675 1.075 0
2.9125 0.9625 0
2.79844 0.951563 0
2.68438 0.940625 0
2.925 0.825 0
2.80938 0.815625 0
2.69375 0.80625 0
2.675 1.075 0
2.5625 1.0625 0
2.45 1.05 0
2.68438 0.940625 0
2.57031 0.929688 0
2.45625 0.91875 0
2.69375 0.80625 0
2.57812 0.796875 0
2.4625 0.7875 0
2.925 0.825 0
2.80938 0.815625 0
2.69375 0.80625 0
2.9375 0.6875 0
2.82031 0.679688 0
2.70312 0.671875 0
2.95 0.55 0
2.83125 0.54375 0
2.7125 0.5375 0
2.69375 0.80625 0
2.57812 0.796875 0
2.4625 0.7875 0
2.70312 0.671875 0
2.58594 0.664062 0
2.46875 0.65625 0
2.7125 0.5375 0
2.59375 0.53125 0
2.475 0.525 0
2.45 1.05 0
2.3375 1.0375 0
2.225 1.025 0
2.45625 0.91875 0
2.34219 0.907813 0
2.22813 0.896875 0
2.4625 0.7875 0
2.34688 0.778125 0
2.23125 0.76875 0
2.225 1.025 0
2.1125 1.0125 0
2 1 0
2.22813 0.896875 0
2.11406 0.885938 0
2 0.875 0
2.23125 0.76875 0
2.11563 0.759375 0
2 0.75 0
2.4625 0.7875 0
2.34688 0.778125 0
2.23125 0.76875 0
2.46875 0.65625 0
2.35156 0.648438 0
2.23438 0.640625 0
2.475 0.525 0
2.35625 0.51875 0
2.2375 0.5125 0
2.23125 0.76875 0
2.11563 0.759375 0
2 0.75 0
2.23438 0.640625 0
2.11719 0.632812 0
2 0.625 0
2.2375 0.5125 0
2.11875 0.50625 0
2 0.5 0
2.95 0.55 0
2.83125 0.54375 0
2.7125 0.5375 0
2.9625 0.4125 0
2.84219 0.407813 0
2.72188 0.403125 0
2.975 0.275 0
2.85313 0.271875 0
2.73125 0.26875 0
2.7125 0.5375 0
2.59375 0.53125 0
2.475 0.525 0
2.72188 0.403125 0
2.60156 0.398438 0
2.48125 0.39375 0
2.73125 0.26875 0
2.60938 0.265625 0
2.4875 0.2625 0
2.975 0.275 0
2.85313 0.271875 0
2.73125 0.26875 0
2.9875 0.1375 0
2.86406 0.135938 0
2.74063 0.134375 0
3 0 0
2.875 0 0
2.75 0 0
2.73125 0.26875 0
2.60938 0.265625 0
2.4875 0.2625 0
2.74063 0.134375 0
2.61719 0.132812 0
2.49375 0.13125 0
2.75 0 0
2.625 0 0
2.5 0 0
2.475 0.525 0
2.35625 0.51875 0
2.2375 0.5125 0
2.48125 0.39375 0
2.36094 0.389063 0
2.24062 0.384375 0
2.4875 0.2625 0
2.36562 0.259375 0
2.24375 0.25625 0
2.2375 0.5125 0
2.11875 0.50625 0
2 0.5 0
2.24062 0.384375 0
2.12031 0.379687 0
2 0.375 0
2.24375 0.25625 0
2.12188 0.253125 0
2 0.25 0
2.4875 0.2625 0
2.36562 0.259375 0
2.24375 0.25625 0
2.49375 0.13125 0
2.37031 0.129688 0
2.24688 0.128125 0
2.5 0 0
2.375 0 0
2.25 0 0
2.24375 0.25625 0
2.12188 0.253125 0
2 0.25 0
2.24688 0.128125 0
2.12344 0.126562 0
2 0.125 0
2.25 0 0
2.125 0 0
2 0 0
4 1 0
3.8625 1.0125 0
3.725 1.025 0
4 0.875 0
3.86406 0.885938 0
3.72813 0.896875 0
4 0.75 0
3.86563 0.759375 0
3.73125 0.76875 0
3.725 1.025 0
3.5875 1.0375 0
3.45 1.05 0
3.72813 0.896875 0
3.59219 0.907813 0
3.45625 0.91875 0
3.73125 0.76875 0
3.59688 0.778125 0
3.4625 0.7875 0
4 0.75 0
3.86563 0.759375 0
3.73125 0.76875 0
4 0.625 0
[...]
POINT_DATA 8640
VECTORS v double
1.25419 -0.320265 0
1.23682 -0.269699 0
1.19611 -0.212163 0
1.1847 -0.282809 0
1.15147 -0.237598 0
1.11524 -0.193976 0
1.09626 -0.2444 0
1.05593 -0.206821 0
1.02153 -0.169954 0
1.19611 -0.212163 0
1.18852 -0.170774 0
1.16431 -0.12467 0
1.11524 -0.193976 0
1.09551 -0.1534 0
1.07289 -0.116779 0
1.02153 -0.169954 0
0.992538 -0.1349 0
0.970208 -0.103311 0
1.09626 -0.2444 0
1.05593 -0.206821 0
1.02153 -0.169954 0
0.981215 -0.192495 0
0.938983 -0.164638 0
0.90128 -0.136982 0
0.845136 -0.149929 0
0.803791 -0.129811 0
0.76726 -0.109116 0
1.02153 -0.169954 0
0.992538 -0.1349 0
0.970208 -0.103311 0
0.90128 -0.136982 0
0.870999 -0.110189 0
0.845888 -0.0845125 0
0.76726 -0.109116 0
0.736731 -0.0881434 0
0.711622 -0.0679162 0
1.16431 -0.12467 0
1.15758 -0.0918515 0
1.13818 -0.0555808 0
1.07289 -0.116779 0
1.05899 -0.0848989 0
1.04191 -0.0532188 0
0.970208 -0.103311 0
0.949528 -0.0736749 0
0.934706 -0.0464015 0
1.13818 -0.0555808 0
1.13593 -0.0284952 0
1.125 0 0
1.04191 -0.0532188 0
1.03472 -0.0250898 0
1.02539 0 0
0.934706 -0.0464015 0
0.921688 -0.0214934 0
0.914062 0 0
0.970208 -0.103311 0
0.949528 -0.0736749 0
0.934706 -0.0464015 0
0.845888 -0.0845125 0
0.825562 -0.0603019 0
0.810316 -0.038154 0
0.711622 -0.0679162 0
0.691137 -0.0487904 0
0.675772 -0.0310618 0
0.934706 -0.0464015 0
0.921688 -0.0214934 0
0.914062 0 0
0.810316 -0.038154 0
0.798454 -0.0181561 0
0.791016 0 0
0.675772 -0.0310618 0
0.66382 -0.0148622 0
0.65625 0 0
0.845136 -0.149929 0
0.803791 -0.129811 0
0.76726 -0.109116 0
0.697037 -0.102782 0
0.655656 -0.0889675 0
0.618675 -0.0746042 0
0.527404 -0.0605918 0
0.488237 -0.0530929 0
0.453171 -0.0452852 0
0.76726 -0.109116 0
0.736731 -0.0881434 0
0.711622 -0.0679162 0
0.618675 -0.0746042 0
0.587539 -0.0602278 0
0.562138 -0.0461701 0
0.453171 -0.0452852 0
0.423398 -0.0372035 0
0.399243 -0.0292386 0
0.527404 -0.0605918 0
0.488237 -0.0530929 0
0.453171 -0.0452852 0
0.314801 -0.0188722 0
0.283557 -0.0161323 0
0.257106 -0.0134751 0
0 0 0
0 0 0
0 0 0
0.453171 -0.0452852 0
0.423398 -0.0372035 0
0.399243 -0.0292386 0
0.257106 -0.0134751 0
0.233613 -0.0106902 0
0.215754 -0.00812795 0
0 0 0
0 0 0
0 0 0
0.711622 -0.0679162 0
0.691137 -0.0487904 0
0.675772 -0.0310618 0
0.562138 -0.0461701 0
0.541554 -0.0327527 0
0.526715 -0.0202396 0
0.399243 -0.0292386 0
0.379905 -0.021469 0
0.366424 -0.014101 0
0.675772 -0.0310618 0
0.66382 -0.0148622 0
0.65625 0 0
0.526715 -0.0202396 0
0.515792 -0.00913454 0
0.509766 0 0
0.366424 -0.014101 0
0.356658 -0.0071123 0
0.351562 0 0
0.399243 -0.0292386 0
0.379905 -0.021469 0
0.366424 -0.014101 0
0.215754 -0.00812795 0
0.200945 -0.005599 0
0.191506 -0.00330602 0
0 0 0
0 0 0
0 0 0
0.366424 -0.014101 0
0.356658 -0.0071123 0
0.351562 0 0
0.191506 -0.00330602 0
0.184536 -0.00124475 0
0.181641 0 0
0 0 0
0 0 0
0 0 0
1.75992 -0.392971 0
1.72391 -0.452986 0
1.60112 -0.475947 0
1.63545 -0.307409 0
1.57232 -0.350069 0
1.49303 -0.378929 0
1.48359 -0.232671 0
1.43375 -0.276551 0
1.37711 -0.306225 0
1.60112 -0.475947 0
1.55066 -0.482988 0
1.44112 -0.464315 0
1.49303 -0.378929 0
1.42939 -0.389113 0
1.35417 -0.387168 0
1.37711 -0.306225 0
1.32164 -0.321178 0
1.26439 -0.323002 0
1.48359 -0.232671 0
1.43375 -0.276551 0
1.37711 -0.306225 0
1.35686 -0.17755 0
1.31296 -0.206507 0
1.25982 -0.227619 0
1.18778 -0.114682 0
1.14544 -0.139542 0
1.09857 -0.158757 0
1.37711 -0.306225 0
1.32164 -0.321178 0
1.26439 -0.323002 0
1.25982 -0.227619 0
1.20776 -0.238587 0
1.15096 -0.241454 0
1.09857 -0.158757 0
1.05128 -0.171238 0
1.00244 -0.177642 0
1.44112 -0.464315 0
1.40044 -0.441936 0
1.32343 -0.400577 0
1.35417 -0.387168 0
1.30613 -0.370877 0
1.24976 -0.347072 0
1.26439 -0.323002 0
1.21488 -0.313126 0
1.16824 -0.294867 0
1.32343 -0.400577 0
1.30191 -0.366285 0
1.25419 -0.320265 0
1.24976 -0.347072 0
1.21973 -0.316014 0
1.1847 -0.282809 0
1.16824 -0.294867 0
1.1299 -0.270907 0
1.09626 -0.2444 0
1.26439 -0.323002 0
1.21488 -0.313126 0
1.16824 -0.294867 0
1.15096 -0.241454 0
1.10323 -0.236682 0
1.05509 -0.226105 0
1.00244 -0.177642 0
0.958826 -0.177682 0
0.916266 -0.172774 0
1.16824 -0.294867 0
1.1299 -0.270907 0
1.09626 -0.2444 0
1.05509 -0.226105 0
1.01693 -0.21118 0
0.981215 -0.192495 0
0.916266 -0.172774 0
0.879349 -0.16305 0
0.845136 -0.149929 0
1.18778 -0.114682 0
1.14544 -0.139542 0
1.09857 -0.158757 0
1.02365 -0.079695 0
0.988581 -0.0974544 0
0.946343 -0.111143 0
0.841029 -0.0368576 0
0.809128 -0.0486896 0
0.769957 -0.0581987 0
1.09857 -0.158757 0
1.05128 -0.171238 0
1.00244 -0.177642 0
0.946343 -0.111143 0
0.903886 -0.119528 0
0.857089 -0.123265 0
0.769957 -0.0581987 0
0.729444 -0.0644707 0
0.684765 -0.0679689 0
0.841029 -0.0368576 0
0.809128 -0.0486896 0
0.769957 -0.0581987 0
0.546357 -0.0115607 0
0.528751 -0.0156809 0
0.502009 -0.0189624 0
0 0 0
0 0 0
0 0 0
0.769957 -0.0581987 0
0.729444 -0.0644707 0
0.684765 -0.0679689 0
0.502009 -0.0189624 0
0.474061 -0.0212677 0
0.440089 -0.0222964 0
0 0 0
0 0 0
0 0 0
1.00244 -0.177642 0
0.958826 -0.177682 0
0.916266 -0.172774 0
0.857089 -0.123265 0
0.814688 -0.122584 0
0.771281 -0.118586 0
0.684765 -0.0679689 0
0.643427 -0.068914 0
0.601096 -0.0679216 0
0.916266 -0.172774 0
0.879349 -0.16305 0
0.845136 -0.149929 0
0.771281 -0.118586 0
0.733161 -0.111929 0
0.697037 -0.102782 0
0.601096 -0.0679216 0
0.563447 -0.0651394 0
0.527404 -0.0605918 0
0.684765 -0.0679689 0
0.643427 -0.068914 0
0.601096 -0.0679216 0
0.440089 -0.0222964 0
0.408385 -0.0225455 0
0.374726 -0.0218649 0
0 0 0
0 0 0
0 0 0
0.601096 -0.0679216 0
0.563447 -0.0651394 0
0.527404 -0.0605918 0
0.374726 -0.0218649 0
0.343963 -0.0207569 0
0.314801 -0.0188722 0
0 0 0
0 0 0
0 0 0
1.25068 -0.0945461 0
1.32242 -0.0766051 0
1.37911 -0.0588904 0
1.2691 -0.176335 0
1.33133 -0.137442 0
1.38372 -0.104114 0
1.27376 -0.233138 0
1.32579 -0.181579 0
1.37382 -0.138991 0
1.37911 -0.0588904 0
1.42013 -0.0449683 0
1.45056 -0.0317344 0
1.38372 -0.104114 0
1.41991 -0.0787615 0
1.44883 -0.0570942 0
1.37382 -0.138991 0
1.40488 -0.105726 0
1.43285 -0.0772997 0
1.27376 -0.233138 0
1.32579 -0.181579 0
1.37382 -0.138991 0
1.29118 -0.301322 0
1.3311 -0.234314 0
1.36799 -0.179247 0
1.31229 -0.327454 0
1.3335 -0.257018 0
1.35408 -0.197871 0
1.37382 -0.138991 0
1.40488 -0.105726 0
1.43285 -0.0772997 0
1.36799 -0.179247 0
1.39172 -0.137139 0
1.41395 -0.100676 0
1.35408 -0.197871 0
1.36891 -0.152532 0
1.38389 -0.111797 0
1.45056 -0.0317344 0
1.47317 -0.0213507 0
1.4873 -0.0117678 0
1.44883 -0.0570942 0
1.46909 -0.0396217 0
1.48308 -0.0237063 0
1.43285 -0.0772997 0
1.45089 -0.0534916 0
1.46605 -0.0325099 0
1.4873 -0.0117678 0
1.49747 -0.00501823 0
1.5 0 0
1.48308 -0.0237063 0
1.49142 -0.010516 0
1.49414 0 0
1.46605 -0.0325099 0
1.47296 -0.0149046 0
1.47656 0 0
1.43285 -0.0772997 0
1.45089 -0.0534916 0
1.46605 -0.0325099 0
1.41395 -0.100676 0
1.42764 -0.0708427 0
1.44003 -0.0440982 0
1.38389 -0.111797 0
1.39287 -0.0785696 0
1.40179 -0.0485124 0
1.46605 -0.0325099 0
1.47296 -0.0149046 0
1.47656 0 0
1.44003 -0.0440982 0
1.44446 -0.0212128 0
1.44727 0 0
1.40179 -0.0485124 0
1.4043 -0.0234842 0
1.40625 0 0
1.31229 -0.327454 0
1.3335 -0.257018 0
1.35408 -0.197871 0
1.30993 -0.35168 0
1.3221 -0.282097 0
1.32759 -0.219304 0
1.31026 -0.352252 0
1.30976 -0.285385 0
1.29737 -0.222855 0
1.35408 -0.197871 0
1.36891 -0.152532 0
1.38389 -0.111797 0
1.32759 -0.219304 0
1.33785 -0.172091 0
1.34387 -0.126182 0
1.29737 -0.222855 0
1.30047 -0.175203 0
1.29573 -0.128024 0
1.31026 -0.352252 0
1.30976 -0.285385 0
1.29737 -0.222855 0
1.28917 -0.341043 0
1.27508 -0.283655 0
1.25221 -0.223123 0
1.25419 -0.320265 0
1.23682 -0.269699 0
1.19611 -0.212163 0
1.29737 -0.222855 0
1.30047 -0.175203 0
1.29573 -0.128024 0
1.25221 -0.223123 0
1.24659 -0.178657 0
1.23563 -0.131 0
1.19611 -0.212163 0
1.18852 -0.170774 0
1.16431 -0.12467 0
1.38389 -0.111797 0
1.39287 -0.0785696 0
1.40179 -0.0485124 0
1.34387 -0.126182 0
1.34953 -0.0901442 0
1.35216 -0.056297 0
1.29573 -0.128024 0
1.29668 -0.0918296 0
1.29174 -0.0565215 0
1.40179 -0.0485124 0
1.4043 -0.0234842 0
1.40625 0 0
1.35216 -0.056297 0
1.35412 -0.0288004 0
1.35352 0 0
1.29174 -0.0565215 0
1.29245 -0.0284481 0
1.28906 0 0
1.29573 -0.128024 0
1.29668 -0.0918296 0
1.29174 -0.0565215 0
1.23563 -0.131 0
1.23027 -0.095595 0
1.22058 -0.0588951 0
1.16431 -0.12467 0
1.15758 -0.0918515 0
1.13818 -0.0555808 0
1.29174 -0.0565215 0
1.29245 -0.0284481 0
1.28906 0 0
1.22058 -0.0588951 0
1.21826 -0.0305844 0
1.21289 0 0
1.13818 -0.0555808 0
1.13593 -0.0284952 0
1.125 0 0
1.97014 0.37353 0
2.10368 0.24388 0
2.05093 0.136289 0
1.92423 0.343802 0
1.93749 0.257557 0
1.94929 0.159976 0
1.62236 0.308102 0
1.67664 0.236323 0
1.68966 0.162378 0
2.05093 0.136289 0
2.11972 0.0260715 0
2.03764 -0.0684335 0
1.94929 0.159976 0
1.93032 0.0652321 0
1.90596 -0.0326178 0
1.68966 0.162378 0
1.70318 0.0834649 0
1.6836 0.00581613 0
1.62236 0.308102 0
1.67664 0.236323 0
1.68966 0.162378 0
1.48557 0.221171 0
1.51324 0.17048 0
1.52995 0.113911 0
1.3157 0.194171 0
1.34204 0.154443 0
1.35595 0.111898 0
1.68966 0.162378 0
1.70318 0.0834649 0
1.6836 0.00581613 0
1.52995 0.113911 0
1.53212 0.0576377 0
1.52151 6.6763e-05 0
1.35595 0.111898 0
1.35628 0.0675122 0
1.34589 0.0232923 0
2.03764 -0.0684335 0
2.05902 -0.167947 0
1.9365 -0.252543 0
1.90596 -0.0326178 0
1.85372 -0.120294 0
1.79048 -0.198355 0
1.6836 0.00581613 0
1.6586 -0.0676692 0
1.60985 -0.132509 0
1.9365 -0.252543 0
1.89624 -0.329208 0
1.75992 -0.392971 0
1.79048 -0.198355 0
1.72187 -0.258957 0
1.63545 -0.307409 0
1.60985 -0.132509 0
1.55163 -0.186315 0
1.48359 -0.232671 0
1.6836 0.00581613 0
1.6586 -0.0676692 0
1.60985 -0.132509 0
1.52151 6.6763e-05 0
1.4971 -0.052817 0
1.45982 -0.102595 0
1.34589 0.0232923 0
1.32191 -0.0186066 0
1.28858 -0.0569117 0
1.60985 -0.132509 0
1.55163 -0.186315 0
1.48359 -0.232671 0
1.45982 -0.102595 0
1.41418 -0.144064 0
1.35686 -0.17755 0
1.28858 -0.0569117 0
1.24208 -0.0886349 0
1.18778 -0.114682 0
1.3157 0.194171 0
1.34204 0.154443 0
1.35595 0.111898 0
1.09217 0.136091 0
1.1227 0.11239 0
1.1432 0.0841733 0
0.832843 0.0939734 0
0.872414 0.0815912 0
0.90237 0.0662282 0
1.35595 0.111898 0
1.35628 0.0675122 0
1.34589 0.0232923 0
1.1432 0.0841733 0
1.15007 0.05378 0
1.14613 0.0223615 0
0.90237 0.0662282 0
0.919395 0.0483758 0
0.925738 0.0293193 0
0.832843 0.0939734 0
0.872414 0.0815912 0
0.90237 0.0662282 0
0.46472 0.0277779 0
0.503896 0.0250772 0
0.537576 0.0209796 0
0 0 0
0 0 0
0 0 0
0.90237 0.0662282 0
0.919395 0.0483758 0
0.925738 0.0293193 0
0.537576 0.0209796 0
0.5626 0.0160742 0
0.579441 0.0103933 0
0 0 0
0 0 0
0 0 0
1.34589 0.0232923 0
1.32191 -0.0186066 0
1.28858 -0.0569117 0
1.14613 0.0223615 0
1.12971 -0.0075152 0
1.10292 -0.0354838 0
0.925738 0.0293193 0
0.9193 0.0102395 0
0.903005 -0.00807769 0
1.28858 -0.0569117 0
1.24208 -0.0886349 0
1.18778 -0.114682 0
1.10292 -0.0354838 0
1.06752 -0.0593953 0
1.02365 -0.079695 0
0.903005 -0.00807769 0
0.876392 -0.0238382 0
0.841029 -0.0368576 0
0.925738 0.0293193 0
0.9193 0.0102395 0
0.903005 -0.00807769 0
0.579441 0.0103933 0
0.585725 0.00467499 0
0.581997 -0.00134435 0
0 0 0
0 0 0
0 0 0
0.903005 -0.00807769 0
0.876392 -0.0238382 0
0.841029 -0.0368576 0
0.581997 -0.00134435 0
0.569277 -0.00676546 0
0.546357 -0.0115607 0
0 0 0
0 0 0
0 0 0
0.914659 0.28321 0
1.0836 0.388624 0
1.17912 0.488238 0
0.928847 0.209571 0
1.03426 0.30128 0
1.11283 0.379664 0
0.922993 0.146741 0
1.00844 0.221281 0
1.08676 0.290621 0
1.17912 0.488238 0
1.39531 0.562383 0
1.55658 0.62083 0
1.11283 0.379664 0
1.23709 0.43592 0
1.35556 0.485763 0
1.08676 0.290621 0
1.17979 0.337399 0
1.2521 0.36901 0
0.922993 0.146741 0
1.00844 0.221281 0
1.08676 0.290621 0
0.871734 0.0913429 0
0.942137 0.154137 0
1.00616 0.212392 0
0.762695 0.0629311 0
0.810567 0.11243 0
0.863236 0.156113 0
1.08676 0.290621 0
1.17979 0.337399 0
1.2521 0.36901 0
1.00616 0.212392 0
1.10009 0.261992 0
1.18578 0.293735 0
0.863236 0.156113 0
0.932048 0.192464 0
1.00551 0.219066 0
1.55658 0.62083 0
1.75088 0.613997 0
1.83602 0.548101 0
1.35556 0.485763 0
1.53791 0.514437 0
1.70606 0.497694 0
1.2521 0.36901 0
1.3285 0.380971 0
1.40862 0.374596 0
1.83602 0.548101 0
1.91036 0.46549 0
1.97014 0.37353 0
1.70606 0.497694 0
1.83562 0.435602 0
1.92423 0.343802 0
1.40862 0.374596 0
1.51808 0.351789 0
1.62236 0.308102 0
1.2521 0.36901 0
1.3285 0.380971 0
1.40862 0.374596 0
1.18578 0.293735 0
1.28049 0.305033 0
1.35784 0.293745 0
1.00551 0.219066 0
1.08661 0.234999 0
1.16972 0.237088 0
1.40862 0.374596 0
1.51808 0.351789 0
1.62236 0.308102 0
1.35784 0.293745 0
1.42769 0.264808 0
1.48557 0.221171 0
1.16972 0.237088 0
1.24885 0.223295 0
1.3157 0.194171 0
0.762695 0.0629311 0
0.810567 0.11243 0
0.863236 0.156113 0
0.592099 0.0363512 0
0.629949 0.0690525 0
0.674296 0.0998738 0
0.36957 0.0142008 0
0.401942 0.0321713 0
0.436178 0.0498437 0
0.863236 0.156113 0
0.932048 0.192464 0
1.00551 0.219066 0
0.674296 0.0998738 0
0.739896 0.125355 0
0.80941 0.144269 0
0.436178 0.0498437 0
0.490285 0.0656873 0
0.549991 0.0795854 0
0.36957 0.0142008 0
0.401942 0.0321713 0
0.436178 0.0498437 0
0.118317 0.0111266 0
0.147059 0.0159452 0
0.17499 0.0203752 0
0 0 0
0 0 0
0 0 0
0.436178 0.0498437 0
0.490285 0.0656873 0
0.549991 0.0795854 0
0.17499 0.0203752 0
0.214788 0.0228535 0
0.256998 0.0248467 0
0 0 0
0 0 0
0 0 0
1.00551 0.219066 0
1.08661 0.234999 0
1.16972 0.237088 0
0.80941 0.144269 0
0.886939 0.154585 0
0.960547 0.157037 0
0.549991 0.0795854 0
0.621741 0.0906856 0
0.694663 0.0977504 0
1.16972 0.237088 0
1.24885 0.223295 0
1.3157 0.194171 0
0.960547 0.157037 0
1.0307 0.150838 0
1.09217 0.136091 0
0.694663 0.0977504 0
0.767503 0.0991272 0
0.832843 0.0939734 0
0.549991 0.0795854 0
0.621741 0.0906856 0
0.694663 0.0977504 0
0.256998 0.0248467 0
0.306919 0.026476 0
0.357721 0.0274267 0
0 0 0
0 0 0
0 0 0
0.694663 0.0977504 0
0.767503 0.0991272 0
0.832843 0.0939734 0
0.357721 0.0274267 0
0.411832 0.0281518 0
0.46472 0.0277779 0
0 0 0
0 0 0
0 0 0
0.553862 1.38726 0
0.708257 1.28401 0
0.58489 1.40684 0
0.563843 1.27616 0
0.755436 1.24471 0
0.737134 1.38498 0
0.649397 1.13446 0
0.838652 1.15703 0
0.935687 1.32425 0
0.58489 1.40684 0
0.666737 1.62288 0
0.555256 1.49581 0
0.737134 1.38498 0
0.858355 1.59776 0
0.854181 1.59426 0
0.935687 1.32425 0
1.0744 1.54028 0
1.13722 1.60235 0
0.649397 1.13446 0
0.838652 1.15703 0
0.935687 1.32425 0
0.723443 0.976234 0
0.900566 1.04509 0
1.07226 1.17211 0
0.821207 0.764047 0
0.976987 0.882451 0
1.18266 0.998537 0
0.935687 1.32425 0
1.0744 1.54028 0
1.13722 1.60235 0
1.07226 1.17211 0
1.22465 1.37358 0
1.3787 1.53263 0
1.18266 0.998537 0
1.33884 1.12981 0
1.55795 1.32589 0
0.555256 1.49581 0
0.417715 1.22058 0
0.347439 0.65966 0
0.854181 1.59426 0
0.760847 1.24018 0
0.656782 0.692617 0
1.13722 1.60235 0
1.12002 1.31756 0
1.06896 0.824959 0
0.347439 0.65966 0
0.175585 0.256145 0
-0.0324351 -0.191247 0
0.656782 0.692617 0
0.43543 0.274913 0
0.277304 -0.162158 0
1.06896 0.824959 0
0.783972 0.294164 0
0.628052 -0.200777 0
1.13722 1.60235 0
1.12002 1.31756 0
1.06896 0.824959 0
1.3787 1.53263 0
1.41703 1.31361 0
1.42027 0.954333 0
1.55795 1.32589 0
1.7238 1.29269 0
1.74305 1.03052 0
1.06896 0.824959 0
0.783972 0.294164 0
0.628052 -0.200777 0
1.42027 0.954333 0
1.17614 0.4888 0
0.942259 -0.0281691 0
1.74305 1.03052 0
1.51189 0.695949 0
1.21366 0.216179 0
0.821207 0.764047 0
0.976987 0.882451 0
1.18266 0.998537 0
0.940109 0.611177 0
1.06047 0.777426 0
1.25154 0.884203 0
1.02322 0.465558 0
1.12084 0.617515 0
1.30849 0.74639 0
1.18266 0.998537 0
1.33884 1.12981 0
1.55795 1.32589 0
1.25154 0.884203 0
1.36682 0.989121 0
1.59316 1.10915 0
1.30849 0.74639 0
1.39513 0.834017 0
1.55347 0.907867 0
1.02322 0.465558 0
1.12084 0.617515 0
1.30849 0.74639 0
0.974759 0.371349 0
1.14271 0.505067 0
1.27648 0.631503 0
0.914659 0.28321 0
1.0836 0.388624 0
1.17912 0.488238 0
1.30849 0.74639 0
1.39513 0.834017 0
1.55347 0.907867 0
1.27648 0.631503 0
1.44708 0.711358 0
1.55336 0.763678 0
1.17912 0.488238 0
1.39531 0.562383 0
1.55658 0.62083 0
1.55795 1.32589 0
1.7238 1.29269 0
1.74305 1.03052 0
1.59316 1.10915 0
1.86168 1.15164 0
2.04784 1.01406 0
1.55347 0.907867 0
1.80686 0.930509 0
2.13759 0.874696 0
1.74305 1.03052 0
1.51189 0.695949 0
1.21366 0.216179 0
2.04784 1.01406 0
1.90325 0.753092 0
1.70418 0.445355 0
2.13759 0.874696 0
2.25352 0.704172 0
2.25523 0.47972 0
1.55347 0.907867 0
1.80686 0.930509 0
2.13759 0.874696 0
1.55336 0.763678 0
1.71012 0.761665 0
1.86921 0.725893 0
1.55658 0.62083 0
1.75088 0.613997 0
1.83602 0.548101 0
2.13759 0.874696 0
2.25352 0.704172 0
2.25523 0.47972 0
1.86921 0.725893 0
2.07505 0.652644 0
2.22558 0.518215 0
1.83602 0.548101 0
1.91036 0.46549 0
1.97014 0.37353 0
2.09872 -0.146174 0
2.09625 -0.0163558 0
1.9738 0.114178 0
1.993 -0.19302 0
1.81993 0.0309658 0
1.63211 0.169066 0
1.89718 -0.00134387 0
1.54744 0.250027 0
1.3771 0.306134 0
1.9738 0.114178 0
1.88754 0.18248 0
1.74084 0.208544 0
1.63211 0.169066 0
1.42655 0.291547 0
1.21764 0.276898 0
1.3771 0.306134 0
0.967723 0.388605 0
0.769567 0.346812 0
1.89718 -0.00134387 0
1.54744 0.250027 0
1.3771 0.306134 0
1.35321 0.290195 0
1.08814 0.532721 0
0.736468 0.685729 0
1.07894 0.558962 0
0.768151 0.761323 0
0.398672 0.936195 0
1.3771 0.306134 0
0.967723 0.388605 0
0.769567 0.346812 0
0.736468 0.685729 0
0.474491 0.613017 0
0.143629 0.561263 0
0.398672 0.936195 0
0.182341 0.836283 0
-0.0260715 0.684391 0
1.74084 0.208544 0
1.70778 0.164555 0
1.62091 0.0884163 0
1.21764 0.276898 0
1.15396 0.223459 0
1.1295 0.114291 0
0.769567 0.346812 0
0.593762 0.120523 0
0.477845 -0.134588 0
1.62091 0.0884163 0
1.63622 0.0337504 0
1.66611 -0.00742175 0
1.1295 0.114291 0
1.28324 -0.0208573 0
1.40856 -0.106826 0
0.477845 -0.134588 0
0.571116 -0.223289 0
0.75061 -0.278953 0
0.769567 0.346812 0
0.593762 0.120523 0
0.477845 -0.134588 0
0.143629 0.561263 0
-0.00273274 0.451712 0
-0.0223562 -0.0745749 0
-0.0260715 0.684391 0
-0.284444 0.54137 0
-0.360185 0.13884 0
0.477845 -0.134588 0
0.571116 -0.223289 0
0.75061 -0.278953 0
-0.0223562 -0.0745749 0
-0.0746464 -0.360801 0
0.108401 -0.505482 0
-0.360185 0.13884 0
-0.473015 -0.292535 0
-0.414674 -0.544358 0
1.07894 0.558962 0
0.768151 0.761323 0
0.398672 0.936195 0
0.789213 0.940316 0
0.598503 1.0491 0
0.321458 1.11399 0
0.597367 1.19028 0
0.622741 1.22406 0
0.334258 1.22559 0
0.398672 0.936195 0
0.182341 0.836283 0
-0.0260715 0.684391 0
0.321458 1.11399 0
0.180059 1.08856 0
-0.0543012 0.93776 0
0.334258 1.22559 0
0.291923 1.35717 0
0.0526867 1.14522 0
0.597367 1.19028 0
0.622741 1.22406 0
0.334258 1.22559 0
0.582695 1.34199 0
0.64142 1.27532 0
0.467016 1.36283 0
0.553862 1.38726 0
0.708257 1.28401 0
0.58489 1.40684 0
0.334258 1.22559 0
0.291923 1.35717 0
0.0526867 1.14522 0
0.467016 1.36283 0
0.438224 1.48603 0
0.264377 1.34837 0
0.58489 1.40684 0
0.666737 1.62288 0
0.555256 1.49581 0
-0.0260715 0.684391 0
-0.284444 0.54137 0
-0.360185 0.13884 0
-0.0543012 0.93776 0
-0.285822 0.731398 0
-0.37002 0.122466 0
0.0526867 1.14522 0
-0.158307 0.926186 0
-0.241352 0.321536 0
-0.360185 0.13884 0
-0.473015 -0.292535 0
-0.414674 -0.544358 0
-0.37002 0.122466 0
-0.507172 -0.357905 0
-0.58176 -0.627492 0
-0.241352 0.321536 0
-0.37462 -0.198648 0
-0.514341 -0.522441 0
0.0526867 1.14522 0
-0.158307 0.926186 0
-0.241352 0.321536 0
0.264377 1.34837 0
0.091757 1.0446 0
0.017791 0.404008 0
0.555256 1.49581 0
0.417715 1.22058 0
0.347439 0.65966 0
-0.241352 0.321536 0
-0.37462 -0.198648 0
-0.514341 -0.522441 0
0.017791 0.404008 0
-0.141783 -0.043435 0
-0.342634 -0.430667 0
0.347439 0.65966 0
0.175585 0.256145 0
-0.0324351 -0.191247 0
0 0 0
0 0 0
0 0 0
0.452689 -0.0106195 0
0.481086 -0.0119471 0
0.510351 -0.011962 0
0.814861 -0.0639927 0
0.870193 -0.0599244 0
0.912904 -0.0523543 0
0 0 0
0 0 0
0 0 0
0.510351 -0.011962 0
0.536414 -0.0114981 0
0.560257 -0.00980118 0
0.912904 -0.0523543 0
0.946744 -0.043334 0
0.969357 -0.032847 0
0.814861 -0.0639927 0
0.870193 -0.0599244 0
0.912904 -0.0523543 0
1.14151 -0.10252 0
1.1854 -0.0862863 0
1.2183 -0.067843 0
1.36278 -0.150326 0
1.39276 -0.113606 0
1.41041 -0.076482 0
0.912904 -0.0523543 0
0.946744 -0.043334 0
0.969357 -0.032847 0
1.2183 -0.067843 0
1.23339 -0.0482595 0
1.23986 -0.0292139 0