# vtk DataFile Version 3.0
#This file was generated by the deal.II library on 2025/1/4 at 9:53:35
ASCII
DATASET UNSTRUCTURED_GRID

POINTS 8640 double
1.1 1.1 0
0.9625 1.09063 0
0.825 1.08125 0
1.0875 0.9625 0
0.951563 0.954297 0
0.815625 0.946094 0
1.075 0.825 0
0.940625 0.817969 0
0.80625 0.810937 0
0.825 1.08125 0
0.6875 1.07187 0
0.55 1.0625 0
0.815625 0.946094 0
0.679688 0.937891 0
0.54375 0.929688 0
0.80625 0.810937 0
0.671875 0.803906 0
0.5375 0.796875 0
1.075 0.825 0
0.940625 0.817969 0
0.80625 0.810937 0
1.0625 0.6875 0
0.929688 0.681641 0
0.796875 0.675781 0
1.05 0.55 0
0.91875 0.545313 0
0.7875 0.540625 0
0.80625 0.810937 0
0.671875 0.803906 0
0.5375 0.796875 0
0.796875 0.675781 0
0.664062 0.669922 0
0.53125 0.664062 0
0.7875 0.540625 0
0.65625 0.535937 0
0.525 0.53125 0
0.55 1.0625 0
0.4125 1.05313 0
0.275 1.04375 0
0.54375 0.929688 0
0.407813 0.921484 0
0.271875 0.913281 0
0.5375 0.796875 0
0.403125 0.789844 0
0.26875 0.782813 0
0.275 1.04375 0
0.1375 1.03437 0
0 1.025 0
0.271875 0.913281 0
0.135938 0.905078 0
0 0.896875 0
0.26875 0.782813 0
0.134375 0.775781 0
0 0.76875 0
0.5375 0.796875 0
0.403125 0.789844 0
0.26875 0.782813 0
0.53125 0.664062 0
0.398438 0.658203 0
0.265625 0.652344 0
0.525 0.53125 0
0.39375 0.526563 0
0.2625 0.521875 0
0.26875 0.782813 0
0.134375 0.775781 0
0 0.76875 0
0.265625 0.652344 0
0.132812 0.646484 0
0 0.640625 0
0.2625 0.521875 0
0.13125 0.517187 0
0 0.5125 0
1.05 0.55 0
0.91875 0.545313 0
0.7875 0.540625 0
1.0375 0.4125 0
0.907812 0.408984 0
0.778125 0.405469 0
1.025 0.275 0
0.896875 0.272656 0
0.76875 0.270313 0
0.7875 0.540625 0
0.65625 0.535937 0
0.525 0.53125 0
0.778125 0.405469 0
0.648438 0.401953 0
0.51875 0.398438 0
0.76875 0.270313 0
0.640625 0.267969 0
0.5125 0.265625 0
1.025 0.275 0
0.896875 0.272656 0
0.76875 0.270313 0
1.0125 0.1375 0
0.885937 0.136328 0
0.759375 0.135156 0
1 0 0
0.875 0 0
0.75 0 0
0.76875 0.270313 0
0.640625 0.267969 0
0.5125 0.265625 0
0.759375 0.135156 0
0.632812 0.133984 0
0.50625 0.132812 0
0.75 0 0
0.625 0 0
0.5 0 0
0.525 0.53125 0
0.39375 0.526563 0
0.2625 0.521875 0
0.51875 0.398438 0
0.389062 0.394922 0
0.259375 0.391406 0
0.5125 0.265625 0
0.384375 0.263281 0
0.25625 0.260937 0
0.2625 0.521875 0
0.13125 0.517187 0
0 0.5125 0
0.259375 0.391406 0
0.129688 0.387891 0
0 0.384375 0
0.25625 0.260937 0
0.128125 0.258594 0
0 0.25625 0
0.5125 0.265625 0
0.384375 0.263281 0
0.25625 0.260937 0
0.50625 0.132812 0
0.379687 0.131641 0
0.253125 0.130469 0
0.5 0 0
0.375 0 0
0.25 0 0
0.25625 0.260937 0
0.128125 0.258594 0
0 0.25625 0
0.253125 0.130469 0
0.126562 0.129297 0
0 0.128125 0
0.25 0 0
0.125 0 0
0 0 0
2 1 0
1.8875 1.0125 0
1.775 1.025 0
2 0.875 0
1.88594 0.885938 0
1.77188 0.896875 0
2 0.75 0
1.88437 0.759375 0
1.76875 0.76875 0
1.775 1.025 0
1.6625 1.0375 0
1.55 1.05 0
1.77188 0.896875 0
1.65781 0.907813 0
1.54375 0.91875 0
1.76875 0.76875 0
1.65313 0.778125 0
1.5375 0.7875 0
2 0.75 0
1.88437 0.759375 0
1.76875 0.76875 0
2 0.625 0
1.88281 0.632812 0
1.76562 0.640625 0
2 0.5 0
1.88125 0.50625 0
1.7625 0.5125 0
1.76875 0.76875 0
1.65313 0.778125 0
1.5375 0.7875 0
1.76562 0.640625 0
1.64844 0.648438 0
1.53125 0.65625 0
1.7625 0.5125 0
1.64375 0.51875 0
1.525 0.525 0
1.55 1.05 0
1.4375 1.0625 0
1.325 1.075 0
1.54375 0.91875 0
1.42969 0.929688 0
1.31563 0.940625 0
1.5375 0.7875 0
1.42188 0.796875 0
1.30625 0.80625 0
1.325 1.075 0
1.2125 1.0875 0
1.1 1.1 0
1.31563 0.940625 0
1.20156 0.951563 0
1.0875 0.9625 0
1.30625 0.80625 0
1.19063 0.815625 0
1.075 0.825 0
1.5375 0.7875 0
1.42188 0.796875 0
1.30625 0.80625 0
1.53125 0.65625 0
1.41406 0.664062 0
1.29688 0.671875 0
1.525 0.525 0
1.40625 0.53125 0
1.2875 0.5375 0
1.30625 0.80625 0
1.19063 0.815625 0
1.075 0.825 0
1.29688 0.671875 0
1.17969 0.679688 0
1.0625 0.6875 0
1.2875 0.5375 0
1.16875 0.54375 0
1.05 0.55 0
2 0.5 0
1.88125 0.50625 0
1.7625 0.5125 0
2 0.375 0
1.87969 0.379687 0
1.75938 0.384375 0
2 0.25 0
1.87813 0.253125 0
1.75625 0.25625 0
1.7625 0.5125 0
1.64375 0.51875 0
1.525 0.525 0
1.75938 0.384375 0
1.63906 0.389063 0
1.51875 0.39375 0
1.75625 0.25625 0
1.63438 0.259375 0
1.5125 0.2625 0
2 0.25 0
1.87813 0.253125 0
1.75625 0.25625 0
2 0.125 0
1.87656 0.126562 0
1.75313 0.128125 0
2 0 0
1.875 0 0
1.75 0 0
1.75625 0.25625 0
1.63438 0.259375 0
1.5125 0.2625 0
1.75313 0.128125 0
1.62969 0.129688 0
1.50625 0.13125 0
1.75 0 0
1.625 0 0
1.5 0 0
1.525 0.525 0
1.40625 0.53125 0
1.2875 0.5375 0
1.51875 0.39375 0
1.39844 0.398438 0
1.27813 0.403125 0
1.5125 0.2625 0
1.39062 0.265625 0
1.26875 0.26875 0
1.2875 0.5375 0
1.16875 0.54375 0
1.05 0.55 0
1.27813 0.403125 0
1.15781 0.407813 0
1.0375 0.4125 0
1.26875 0.26875 0
1.14688 0.271875 0
1.025 0.275 0
1.5125 0.2625 0
1.39062 0.265625 0
1.26875 0.26875 0
1.50625 0.13125 0
1.38281 0.132812 0
1.25937 0.134375 0
1.5 0 0
1.375 0 0
1.25 0 0
1.26875 0.26875 0
1.14688 0.271875 0
1.025 0.275 0
1.25937 0.134375 0
1.13594 0.135938 0
1.0125 0.1375 0
1.25 0 0
1.125 0 0
1 0 0
1 2 0
0.875 2.00625 0
0.75 2.0125 0
1.0125 1.8875 0
0.885938 1.8918 0
0.759375 1.89609 0
1.025 1.775 0
0.896875 1.77734 0
0.76875 1.77969 0
0.75 2.0125 0
0.625 2.01875 0
0.5 2.025 0
0.759375 1.89609 0
0.632812 1.90039 0
0.50625 1.90469 0
0.76875 1.77969 0
0.640625 1.78203 0
0.5125 1.78437 0
1.025 1.775 0
0.896875 1.77734 0
0.76875 1.77969 0
1.0375 1.6625 0
0.907813 1.66289 0
0.778125 1.66328 0
1.05 1.55 0
0.91875 1.54844 0
0.7875 1.54688 0
0.76875 1.77969 0
0.640625 1.78203 0
0.5125 1.78437 0
0.778125 1.66328 0
0.648438 1.66367 0
0.51875 1.66406 0
0.7875 1.54688 0
0.65625 1.54531 0
0.525 1.54375 0
0.5 2.025 0
0.375 2.03125 0
0.25 2.0375 0
0.50625 1.90469 0
0.379687 1.90898 0
0.253125 1.91328 0
0.5125 1.78437 0
0.384375 1.78672 0
0.25625 1.78906 0
0.25 2.0375 0
0.125 2.04375 0
0 2.05 0
0.253125 1.91328 0
0.126562 1.91758 0
0 1.92187 0
0.25625 1.78906 0
0.128125 1.79141 0
0 1.79375 0
0.5125 1.78437 0
0.384375 1.78672 0
0.25625 1.78906 0
0.51875 1.66406 0
0.389062 1.66445 0
0.259375 1.66484 0
0.525 1.54375 0
0.39375 1.54219 0
0.2625 1.54062 0
0.25625 1.78906 0
0.128125 1.79141 0
0 1.79375 0
0.259375 1.66484 0
0.129688 1.66523 0
0 1.66562 0
0.2625 1.54062 0
0.13125 1.53906 0
0 1.5375 0
1.05 1.55 0
0.91875 1.54844 0
0.7875 1.54688 0
1.0625 1.4375 0
0.929688 1.43398 0
0.796875 1.43047 0
1.075 1.325 0
0.940625 1.31953 0
0.80625 1.31406 0
0.7875 1.54688 0
0.65625 1.54531 0
0.525 1.54375 0
0.796875 1.43047 0
0.664062 1.42695 0
0.53125 1.42344 0
0.80625 1.31406 0
0.671875 1.30859 0
0.5375 1.30312 0
1.075 1.325 0
0.940625 1.31953 0
0.80625 1.31406 0
1.0875 1.2125 0
0.951563 1.20508 0
0.815625 1.19766 0
1.1 1.1 0
0.9625 1.09063 0
0.825 1.08125 0
0.80625 1.31406 0
0.671875 1.30859 0
0.5375 1.30312 0
0.815625 1.19766 0
0.679688 1.19023 0
0.54375 1.18281 0
0.825 1.08125 0
0.6875 1.07187 0
0.55 1.0625 0
0.525 1.54375 0
0.39375 1.54219 0
0.2625 1.54062 0
0.53125 1.42344 0
0.398438 1.41992 0
0.265625 1.41641 0
0.5375 1.30312 0
0.403125 1.29766 0
0.26875 1.29219 0
0.2625 1.54062 0
0.13125 1.53906 0
0 1.5375 0
0.265625 1.41641 0
0.132812 1.41289 0
0 1.40937 0
0.26875 1.29219 0
0.134375 1.28672 0
0 1.28125 0
0.5375 1.30312 0
0.403125 1.29766 0
0.26875 1.29219 0
0.54375 1.18281 0
0.407813 1.17539 0
0.271875 1.16797 0
0.55 1.0625 0
0.4125 1.05313 0
0.275 1.04375 0
0.26875 1.29219 0
0.134375 1.28672 0
0 1.28125 0
0.271875 1.16797 0
0.135938 1.16055 0
0 1.15312 0
0.275 1.04375 0
0.1375 1.03437 0
0 1.025 0
2.9 1.1 0
2.7875 1.0875 0
2.675 1.075 0
2.9125 0.9625 0
2.79844 0.951563 0
2.68438 0.940625 0
2.925 0.825 0
2.80938 0.815625 0
2.69375 0.80625 0
2.675 1.075 0
2.5625 1.0625 0
2.45 1.05 0
2.68438 0.940625 0
2.57031 0.929688 0
2.45625 0.91875 0
2.69375 0.80625 0
2.57812 0.796875 0
2.4625 0.7875 0
2.925 0.825 0
2.80938 0.815625 0
2.69375 0.80625 0
2.9375 0.6875 0
2.82031 0.679688 0
2.70312 0.671875 0
2.95 0.55 0
2.83125 0.54375 0
2.7125 0.5375 0
2.69375 0.80625 0
2.57812 0.796875 0
2.4625 0.7875 0
2.70312 0.671875 0
2.58594 0.664062 0
2.46875 0.65625 0
2.7125 0.5375 0
2.59375 0.53125 0
2.475 0.525 0
2.45 1.05 0
2.3375 1.0375 0
2.225 1.025 0
2.45625 0.91875 0
2.34219 0.907813 0
2.22813 0.896875 0
2.4625 0.7875 0
2.34688 0.778125 0
2.23125 0.76875 0
2.225 1.025 0
2.1125 1.0125 0
2 1 0
2.22813 0.896875 0
2.11406 0.885938 0
2 0.875 0
2.23125 0.76875 0
2.11563 0.759375 0
2 0.75 0
2.4625 0.7875 0
2.34688 0.778125 0
2.23125 0.76875 0
2.46875 0.65625 0
2.35156 0.648438 0
2.23438 0.640625 0
2.475 0.525 0
2.35625 0.51875 0
2.2375 0.5125 0
2.23125 0.76875 0
2.11563 0.759375 0
2 0.75 0
2.23438 0.640625 0
2.11719 0.632812 0
2 0.625 0
2.2375 0.5125 0
2.11875 0.50625 0
2 0.5 0
2.95 0.55 0
2.83125 0.54375 0
2.7125 0.5375 0
2.9625 0.4125 0
2.84219 0.407813 0
2.72188 0.403125 0
2.975 0.275 0
2.85313 0.271875 0
2.73125 0.26875 0
2.7125 0.5375 0
2.59375 0.53125 0
2.475 0.525 0
2.72188 0.403125 0
2.60156 0.398438 0
2.48125 0.39375 0
2.73125 0.26875 0
2.60938 0.265625 0
2.4875 0.2625 0
2.975 0.275 0
2.85313 0.271875 0
2.73125 0.26875 0
2.9875 0.1375 0
2.86406 0.135938 0
2.74063 0.134375 0
3 0 0
2.875 0 0
2.75 0 0
2.73125 0.26875 0
2.60938 0.265625 0
2.4875 0.2625 0
2.74063 0.134375 0
2.61719 0.132812 0
2.49375 0.13125 0
2.75 0 0
2.625 0 0
2.5 0 0
2.475 0.525 0
2.35625 0.51875 0
2.2375 0.5125 0
2.48125 0.39375 0
2.36094 0.389063 0
2.24062 0.384375 0
2.4875 0.2625 0
2.36562 0.259375 0
2.24375 0.25625 0
2.2375 0.5125 0
2.11875 0.50625 0
2 0.5 0
2.24062 0.384375 0
2.12031 0.379687 0
2 0.375 0
2.24375 0.25625 0
2.12188 0.253125 0
2 0.25 0
2.4875 0.2625 0
2.36562 0.259375 0
2.24375 0.25625 0
2.49375 0.13125 0
2.37031 0.129688 0
2.24688 0.128125 0
2.5 0 0
2.375 0 0
2.25 0 0
2.24375 0.25625 0
2.12188 0.253125 0
2 0.25 0
2.24688 0.128125 0
2.12344 0.126562 0
2 0.125 0
2.25 0 0
2.125 0 0
2 0 0
4 1 0
3.8625 1.0125 0
3.725 1.025 0
4 0.875 0
3.86406 0.885938 0
3.72813 0.896875 0
4 0.75 0
3.86563 0.759375 0
3.73125 0.76875 0
3.725 1.025 0
3.5875 1.0375 0
3.45 1.05 0
3.72813 0.896875 0
3.59219 0.907813 0
3.45625 0.91875 0
3.73125 0.76875 0
3.59688 0.778125 0
3.4625 0.7875 0
4 0.75 0
3.86563 0.759375 0
3.73125 0.76875 0
4 0.625 0
3.86719 0.632812 0
[...]
POINT_DATA 8640
VECTORS v double
1.21042 -0.250023 0
1.18953 -0.197482 0
1.17562 -0.148911 0
1.13772 -0.22461 0
1.10933 -0.179065 0
1.09212 -0.140385 0
1.04954 -0.196205 0
1.02074 -0.158383 0
0.994916 -0.124132 0
1.17562 -0.148911 0
1.16372 -0.112996 0
1.15555 -0.0803548 0
1.09212 -0.140385 0
1.07299 -0.106414 0
1.06255 -0.0782932 0
0.994916 -0.124132 0
0.974171 -0.0947498 0
0.95698 -0.0694247 0
1.04954 -0.196205 0
1.02074 -0.158383 0
0.994916 -0.124132 0
0.938603 -0.155639 0
0.904899 -0.126731 0
0.876643 -0.100794 0
0.805905 -0.122409 0
0.772351 -0.100615 0
0.743969 -0.0805118 0
0.994916 -0.124132 0
0.974171 -0.0947498 0
0.95698 -0.0694247 0
0.876643 -0.100794 0
0.853366 -0.0779758 0
0.8346 -0.0576972 0
0.743969 -0.0805118 0
0.72012 -0.0623906 0
0.701011 -0.0462556 0
1.15555 -0.0803548 0
1.14707 -0.0563957 0
1.14023 -0.033664 0
1.06255 -0.0782932 0
1.04904 -0.0543714 0
1.04229 -0.0341959 0
0.95698 -0.0694247 0
0.942878 -0.048095 0
0.932221 -0.0300374 0
1.14023 -0.033664 0
1.13234 -0.016585 0
1.125 0 0
1.04229 -0.0341959 0
1.03142 -0.0164221 0
1.02539 0 0
0.932221 -0.0300374 0
0.921549 -0.0142715 0
0.914062 0 0
0.95698 -0.0694247 0
0.942878 -0.048095 0
0.932221 -0.0300374 0
0.8346 -0.0576972 0
0.819495 -0.0399999 0
0.808022 -0.0252468 0
0.701011 -0.0462556 0
0.684937 -0.0322575 0
0.672887 -0.0204413 0
0.932221 -0.0300374 0
0.921549 -0.0142715 0
0.914062 0 0
0.808022 -0.0252468 0
0.798172 -0.012412 0
0.791016 0 0
0.672887 -0.0204413 0
0.662962 -0.0100276 0
0.65625 0 0
0.805905 -0.122409 0
0.772351 -0.100615 0
0.743969 -0.0805118 0
0.657712 -0.0829027 0
0.623482 -0.0680547 0
0.594439 -0.0541931 0
0.487629 -0.049389 0
0.455124 -0.0408931 0
0.427865 -0.0329829 0
0.743969 -0.0805118 0
0.72012 -0.0623906 0
0.701011 -0.0462556 0
0.594439 -0.0541931 0
0.570244 -0.0416954 0
0.551059 -0.030722 0
0.427865 -0.0329829 0
0.405126 -0.0257373 0
0.387504 -0.0193905 0
0.487629 -0.049389 0
0.455124 -0.0408931 0
0.427865 -0.0329829 0
0.278435 -0.014507 0
0.25377 -0.0116335 0
0.2344 -0.00912864 0
0 0 0
0 0 0
0 0 0
0.427865 -0.0329829 0
0.405126 -0.0257373 0
0.387504 -0.0193905 0
0.2344 -0.00912864 0
0.217814 -0.00685246 0
0.205589 -0.00499828 0
0 0 0
0 0 0
0 0 0
0.701011 -0.0462556 0
0.684937 -0.0322575 0
0.672887 -0.0204413 0
0.551059 -0.030722 0
0.535406 -0.0213497 0
0.523899 -0.0132682 0
0.387504 -0.0193905 0
0.373407 -0.0138609 0
0.363455 -0.00908388 0
0.672887 -0.0204413 0
0.662962 -0.0100276 0
0.65625 0 0
0.523899 -0.0132682 0
0.515166 -0.00612538 0
0.509766 0 0
0.363455 -0.00908388 0
0.356001 -0.00471143 0
0.351562 0 0
0.387504 -0.0193905 0
0.373407 -0.0138609 0
0.363455 -0.00908388 0
0.205589 -0.00499828 0
0.195757 -0.00337535 0
0.189057 -0.00204036 0
0 0 0
0 0 0
0 0 0
0.363455 -0.00908388 0
0.356001 -0.00471143 0
0.351562 0 0
0.189057 -0.00204036 0
0.184181 -0.000852432 0
0.181641 0 0
0 0 0
0 0 0
0 0 0
1.65632 -0.468029 0
1.56184 -0.487008 0
1.49927 -0.487244 0
1.52387 -0.383742 0
1.45306 -0.395856 0
1.38734 -0.397966 0
1.39649 -0.30766 0
1.34199 -0.325487 0
1.285 -0.330777 0
1.49927 -0.487244 0
1.41263 -0.464264 0
1.35464 -0.431385 0
1.38734 -0.397966 0
1.32194 -0.385898 0
1.2657 -0.36549 0
1.285 -0.330777 0
1.23436 -0.325849 0
1.18237 -0.309764 0
1.39649 -0.30766 0
1.34199 -0.325487 0
1.285 -0.330777 0
1.28904 -0.241523 0
1.23579 -0.251041 0
1.18184 -0.253113 0
1.13774 -0.171808 0
1.08644 -0.180986 0
1.03413 -0.185061 0
1.285 -0.330777 0
1.23436 -0.325849 0
1.18237 -0.309764 0
1.18184 -0.253113 0
1.12923 -0.24794 0
1.07818 -0.23639 0
1.03413 -0.185061 0
0.985917 -0.184412 0
0.93912 -0.178801 0
1.35464 -0.431385 0
1.29359 -0.38933 0
1.25957 -0.342912 0
1.2657 -0.36549 0
1.21931 -0.334342 0
1.18342 -0.300051 0
1.18237 -0.309764 0
1.14176 -0.286565 0
1.10275 -0.257919 0
1.25957 -0.342912 0
1.22568 -0.29678 0
1.21042 -0.250023 0
1.18342 -0.300051 0
1.15521 -0.261696 0
1.13772 -0.22461 0
1.10275 -0.257919 0
1.07485 -0.22756 0
1.04954 -0.196205 0
1.18237 -0.309764 0
1.14176 -0.286565 0
1.10275 -0.257919 0
1.07818 -0.23639 0
1.03501 -0.220158 0
0.99567 -0.200351 0
0.93912 -0.178801 0
0.899189 -0.168892 0
0.862435 -0.155586 0
1.10275 -0.257919 0
1.07485 -0.22756 0
1.04954 -0.196205 0
0.99567 -0.200351 0
0.964772 -0.178705 0
0.938603 -0.155639 0
0.862435 -0.155586 0
0.832129 -0.139811 0
0.805905 -0.122409 0
1.13774 -0.171808 0
1.08644 -0.180986 0
1.03413 -0.185061 0
0.987594 -0.121509 0
0.940766 -0.128035 0
0.891188 -0.130642 0
0.816063 -0.065368 0
0.770941 -0.0702889 0
0.722013 -0.0727728 0
1.03413 -0.185061 0
0.985917 -0.184412 0
0.93912 -0.178801 0
0.891188 -0.130642 0
0.845094 -0.129262 0
0.798521 -0.124206 0
0.722013 -0.0727728 0
0.676252 -0.0728339 0
0.629805 -0.0707099 0
0.816063 -0.065368 0
0.770941 -0.0702889 0
0.722013 -0.0727728 0
0.529726 -0.0206926 0
0.497869 -0.0225857 0
0.461302 -0.0234356 0
0 0 0
0 0 0
0 0 0
0.722013 -0.0727728 0
0.676252 -0.0728339 0
0.629805 -0.0707099 0
0.461302 -0.0234356 0
0.426625 -0.0235343 0
0.39072 -0.0225833 0
0 0 0
0 0 0
0 0 0
0.93912 -0.178801 0
0.899189 -0.168892 0
0.862435 -0.155586 0
0.798521 -0.124206 0
0.757762 -0.116416 0
0.719086 -0.106346 0
0.629805 -0.0707099 0
0.588904 -0.0670308 0
0.550075 -0.0619915 0
0.862435 -0.155586 0
0.832129 -0.139811 0
0.805905 -0.122409 0
0.719086 -0.106346 0
0.686395 -0.0951203 0
0.657712 -0.0829027 0
0.550075 -0.0619915 0
0.516888 -0.0561018 0
0.487629 -0.049389 0
0.629805 -0.0707099 0
0.588904 -0.0670308 0
0.550075 -0.0619915 0
0.39072 -0.0225833 0
0.358348 -0.0211679 0
0.328092 -0.01913 0
0 0 0
0 0 0
0 0 0
0.550075 -0.0619915 0
0.516888 -0.0561018 0
0.487629 -0.049389 0
0.328092 -0.01913 0
0.301177 -0.0169337 0
0.278435 -0.014507 0
0 0 0
0 0 0
0 0 0
1.24946 0.0502879 0
1.32188 0.0515863 0
1.37889 0.0496584 0
1.2548 -0.0245279 0
1.32074 -0.00568233 0
1.37668 0.00802325 0
1.24099 -0.0911536 0
1.30371 -0.0570864 0
1.35813 -0.031858 0
1.37889 0.0496584 0
1.42023 0.0459508 0
1.45067 0.0397638 0
1.37668 0.00802325 0
1.41534 0.0142828 0
1.44624 0.0167529 0
1.35813 -0.031858 0
1.39559 -0.0163768 0
1.42659 -0.00606975 0
1.24099 -0.0911536 0
1.30371 -0.0570864 0
1.35813 -0.031858 0
1.25454 -0.165268 0
1.30464 -0.113561 0
1.34917 -0.0745977 0
1.2623 -0.201271 0
1.29638 -0.144573 0
1.32851 -0.100157 0
1.35813 -0.031858 0
1.39559 -0.0163768 0
1.42659 -0.00606975 0
1.34917 -0.0745977 0
1.37985 -0.0493166 0
1.40627 -0.0305787 0
1.32851 -0.100157 0
1.35193 -0.0700788 0
1.37331 -0.0460091 0
1.45067 0.0397638 0
1.47328 0.0321932 0
1.48721 0.022722 0
1.44624 0.0167529 0
1.46757 0.0154523 0
1.48215 0.0122036 0
1.42659 -0.00606975 0
1.44809 -0.00061611 0
1.46391 0.00194249 0
1.48721 0.022722 0
1.49748 0.0121017 0
1.5 0 0
1.48215 0.0122036 0
1.49113 0.00713404 0
1.49414 0 0
1.46391 0.00194249 0
1.473 0.00195897 0
1.47656 0 0
1.42659 -0.00606975 0
1.44809 -0.00061611 0
1.46391 0.00194249 0
1.40627 -0.0305787 0
1.42396 -0.0185857 0
1.43772 -0.00988404 0
1.37331 -0.0460091 0
1.38732 -0.0295917 0
1.39898 -0.0166333 0
1.46391 0.00194249 0
1.473 0.00195897 0
1.47656 0 0
1.43772 -0.00988404 0
1.44442 -0.00421798 0
1.44727 0 0
1.39898 -0.0166333 0
1.40402 -0.00762628 0
1.40625 0 0
1.2623 -0.201271 0
1.29638 -0.144573 0
1.32851 -0.100157 0
1.25914 -0.242536 0
1.28258 -0.180659 0
1.30199 -0.129988 0
1.25929 -0.253697 0
1.26581 -0.192547 0
1.27106 -0.141187 0
1.32851 -0.100157 0
1.35193 -0.0700788 0
1.37331 -0.0460091 0
1.30199 -0.129988 0
1.31932 -0.0950318 0
1.33329 -0.0648946 0
1.27106 -0.141187 0
1.27852 -0.103959 0
1.28466 -0.0718838 0
1.25929 -0.253697 0
1.26581 -0.192547 0
1.27106 -0.141187 0
1.23312 -0.257764 0
1.23201 -0.203864 0
1.22373 -0.151195 0
1.21042 -0.250023 0
1.18953 -0.197482 0
1.17562 -0.148911 0
1.27106 -0.141187 0
1.27852 -0.103959 0
1.28466 -0.0718838 0
1.22373 -0.151195 0
1.22572 -0.114707 0
1.22263 -0.080489 0
1.17562 -0.148911 0
1.16372 -0.112996 0
1.15555 -0.0803548 0
1.37331 -0.0460091 0
1.38732 -0.0295917 0
1.39898 -0.0166333 0
1.33329 -0.0648946 0
1.34319 -0.0438828 0
1.35001 -0.0263429 0
1.28466 -0.0718838 0
1.28839 -0.0491812 0
1.29051 -0.0291464 0
1.39898 -0.0166333 0
1.40402 -0.00762628 0
1.40625 0 0
1.35001 -0.0263429 0
1.35332 -0.0134305 0
1.35352 0 0
1.29051 -0.0291464 0
1.29076 -0.0141698 0
1.28906 0 0
1.28466 -0.0718838 0
1.28839 -0.0491812 0
1.29051 -0.0291464 0
1.22263 -0.080489 0
1.22331 -0.0574846 0
1.21968 -0.0342441 0
1.15555 -0.0803548 0
1.14707 -0.0563957 0
1.14023 -0.033664 0
1.29051 -0.0291464 0
1.29076 -0.0141698 0
1.28906 0 0
1.21968 -0.0342441 0
1.2181 -0.0172713 0
1.21289 0 0
1.14023 -0.033664 0
1.13234 -0.016585 0
1.125 0 0
2.0795 -0.136077 0
2.01215 -0.164793 0
2.01965 -0.229912 0
1.99728 -0.0689238 0
1.96292 -0.129324 0
1.91159 -0.176955 0
1.852 -0.0312105 0
1.80322 -0.0785028 0
1.76905 -0.122738 0
2.01965 -0.229912 0
1.94995 -0.269035 0
1.94508 -0.322507 0
1.91159 -0.176955 0
1.87265 -0.220465 0
1.82396 -0.266673 0
1.76905 -0.122738 0
1.71218 -0.163585 0
1.66181 -0.202718 0
1.852 -0.0312105 0
1.80322 -0.0785028 0
1.76905 -0.122738 0
1.67672 -0.00718323 0
1.64551 -0.0525724 0
1.61232 -0.0940324 0
1.51667 0.0149325 0
1.49011 -0.0221949 0
1.4619 -0.0558868 0
1.76905 -0.122738 0
1.71218 -0.163585 0
1.66181 -0.202718 0
1.61232 -0.0940324 0
1.56985 -0.131664 0
1.52648 -0.164922 0
1.4619 -0.0558868 0
1.42129 -0.0853765 0
1.37685 -0.110902 0
1.94508 -0.322507 0
1.87246 -0.371969 0
1.84634 -0.421858 0
1.82396 -0.266673 0
1.75904 -0.309391 0
1.68332 -0.343105 0
1.66181 -0.202718 0
1.59851 -0.240841 0
1.54039 -0.27189 0
1.84634 -0.421858 0
1.72584 -0.439819 0
1.65632 -0.468029 0
1.68332 -0.343105 0
1.60367 -0.368267 0
1.52387 -0.383742 0
1.54039 -0.27189 0
1.4697 -0.294005 0
1.39649 -0.30766 0
1.66181 -0.202718 0
1.59851 -0.240841 0
1.54039 -0.27189 0
1.52648 -0.164922 0
1.47311 -0.192505 0
1.41725 -0.215118 0
1.37685 -0.110902 0
1.32306 -0.132977 0
1.26628 -0.151154 0
1.54039 -0.27189 0
1.4697 -0.294005 0
1.39649 -0.30766 0
1.41725 -0.215118 0
1.35354 -0.231789 0
1.28904 -0.241523 0
1.26628 -0.151154 0
1.20422 -0.164193 0
1.13774 -0.171808 0
1.51667 0.0149325 0
1.49011 -0.0221949 0
1.4619 -0.0558868 0
1.32612 0.0290165 0
1.30703 0.000333434 0
1.27988 -0.0263052 0
1.07995 0.038037 0
1.07546 0.0195513 0
1.06041 0.00167539 0
1.4619 -0.0558868 0
1.42129 -0.0853765 0
1.37685 -0.110902 0
1.27988 -0.0263052 0
1.24486 -0.0502867 0
1.20329 -0.071823 0
1.06041 0.00167539 0
1.03691 -0.0146644 0
1.00412 -0.0296244 0
1.07995 0.038037 0
1.07546 0.0195513 0
1.06041 0.00167539 0
0.671466 0.0141091 0
0.682038 0.00834505 0
0.684001 0.00256317 0
0 0 0
0 0 0
0 0 0
1.06041 0.00167539 0
1.03691 -0.0146644 0
1.00412 -0.0296244 0
0.684001 0.00256317 0
0.676412 -0.00273618 0
0.660422 -0.0076792 0
0 0 0
0 0 0
0 0 0
1.37685 -0.110902 0
1.32306 -0.132977 0
1.26628 -0.151154 0
1.20329 -0.071823 0
1.15599 -0.0899439 0
1.1028 -0.104428 0
1.00412 -0.0296244 0
0.965269 -0.0423122 0
0.919062 -0.0528754 0
1.26628 -0.151154 0
1.20422 -0.164193 0
1.13774 -0.171808 0
1.1028 -0.104428 0
1.04719 -0.114677 0
0.987594 -0.121509 0
0.919062 -0.0528754 0
0.870436 -0.0605023 0
0.816063 -0.065368 0
1.00412 -0.0296244 0
0.965269 -0.0423122 0
0.919062 -0.0528754 0
0.660422 -0.0076792 0
0.637194 -0.0118526 0
0.606031 -0.0156605 0
0 0 0
0 0 0
0 0 0
0.919062 -0.0528754 0
0.870436 -0.0605023 0
0.816063 -0.065368 0
0.606031 -0.0156605 0
0.571143 -0.0186473 0
0.529726 -0.0206926 0
0 0 0
0 0 0
0 0 0
1.75496 0.61464 0
1.92074 0.576286 0
2.08634 0.522267 0
1.59546 0.528832 0
1.70346 0.497868 0
1.81506 0.45927 0
1.46052 0.425894 0
1.54946 0.411867 0
1.63165 0.376503 0
2.08634 0.522267 0
2.17871 0.39723 0
2.23578 0.266463 0
1.81506 0.45927 0
1.92312 0.395141 0
2.00577 0.306902 0
1.63165 0.376503 0
1.68844 0.323226 0
1.75538 0.259128 0
1.46052 0.425894 0
1.54946 0.411867 0
1.63165 0.376503 0
1.32887 0.351535 0
1.41536 0.34142 0
1.50968 0.317022 0
1.09212 0.251786 0
1.20011 0.258349 0
1.29685 0.250195 0
1.63165 0.376503 0
1.68844 0.323226 0
1.75538 0.259128 0
1.50968 0.317022 0
1.56959 0.275172 0
1.62745 0.224865 0
1.29685 0.250195 0
1.37004 0.227332 0
1.4334 0.194524 0
2.23578 0.266463 0
2.21356 0.123801 0
2.17352 0.0119431 0
2.00577 0.306902 0
2.03981 0.20509 0
2.04219 0.10731 0
1.75538 0.259128 0
1.79289 0.181995 0
1.83345 0.108733 0
2.17352 0.0119431 0
2.1279 -0.0774402 0
2.0795 -0.136077 0
2.04219 0.10731 0
2.02741 0.0164475 0
1.99728 -0.0689238 0
1.83345 0.108733 0
1.84357 0.0352361 0
1.852 -0.0312105 0
1.75538 0.259128 0
1.79289 0.181995 0
1.83345 0.108733 0
1.62745 0.224865 0
1.65527 0.167391 0
1.67828 0.108106 0
1.4334 0.194524 0
1.47221 0.152261 0
1.50286 0.107464 0
1.83345 0.108733 0
1.84357 0.0352361 0
1.852 -0.0312105 0
1.67828 0.108106 0
1.67971 0.0493481 0
1.67672 -0.00718323 0
1.50286 0.107464 0
1.51274 0.0606276 0
1.51667 0.0149325 0
1.09212 0.251786 0
1.20011 0.258349 0
1.29685 0.250195 0
0.860079 0.1643 0
0.957037 0.168254 0
1.05794 0.169202 0
0.558927 0.0849933 0
0.649282 0.0923575 0
0.734331 0.0985232 0
1.29685 0.250195 0
1.37004 0.227332 0
1.4334 0.194524 0
1.05794 0.169202 0
1.14097 0.159809 0
1.21346 0.14424 0
0.734331 0.0985232 0
0.823189 0.0999851 0
0.900775 0.0966535 0
0.558927 0.0849933 0
0.649282 0.0923575 0
0.734331 0.0985232 0
0.28605 0.020559 0
0.346763 0.0214356 0
0.389717 0.0221906 0
0 0 0
0 0 0
0 0 0
0.734331 0.0985232 0
0.823189 0.0999851 0
0.900775 0.0966535 0
0.389717 0.0221906 0
0.446042 0.0238499 0
0.496546 0.0249305 0
0 0 0
0 0 0
0 0 0
1.4334 0.194524 0
1.47221 0.152261 0
1.50286 0.107464 0
1.21346 0.14424 0
1.26377 0.120529 0
1.30052 0.0926362 0
0.900775 0.0966535 0
0.96934 0.0871908 0
1.02155 0.0736892 0
1.50286 0.107464 0
1.51274 0.0606276 0
1.51667 0.0149325 0
1.30052 0.0926362 0
1.31936 0.0613322 0
1.32612 0.0290165 0
1.02155 0.0736892 0
1.05895 0.0569393 0
1.07995 0.038037 0
0.900775 0.0966535 0
0.96934 0.0871908 0
1.02155 0.0736892 0
0.496546 0.0249305 0
0.549694 0.0248246 0
0.596895 0.0226912 0
0 0 0
0 0 0
0 0 0
1.02155 0.0736892 0
1.05895 0.0569393 0
1.07995 0.038037 0
0.596895 0.0226912 0
0.638236 0.018928 0
0.671466 0.0141091 0
0 0 0
0 0 0
0 0 0
0.75308 0.684124 0
0.652662 0.271017 0
0.403599 -0.238747 0
1.07802 0.80261 0
0.919485 0.383452 0
0.719363 0.0143929 0
1.39357 0.994736 0
1.25813 0.528793 0
1.07285 0.181907 0
0.403599 -0.238747 0
0.190698 -0.570429 0
-0.118711 -0.852587 0
0.719363 0.0143929 0
0.509921 -0.362499 0
0.219483 -0.69854 0
1.07285 0.181907 0
0.833748 -0.219144 0
0.613773 -0.508485 0
1.39357 0.994736 0
1.25813 0.528793 0
1.07285 0.181907 0
1.64275 1.05801 0
1.47181 0.672715 0
1.39211 0.388277 0
1.95936 1.10374 0
1.74755 0.732854 0
1.60908 0.480953 0
1.07285 0.181907 0
0.833748 -0.219144 0
0.613773 -0.508485 0
1.39211 0.388277 0
1.16145 -0.00828567 0
1.01539 -0.232887 0
1.60908 0.480953 0
1.40405 0.126048 0
1.25604 -0.0976432 0
-0.118711 -0.852587 0
-0.397676 -1.27142 0
-0.475924 -1.35857 0
0.219483 -0.69854 0
-0.042269 -1.02403 0
-0.310297 -1.16535 0
0.613773 -0.508485 0
0.309938 -0.754524 0
-0.00992738 -0.916663 0
-0.475924 -1.35857 0
-0.584393 -1.10723 0
-0.645163 -0.864049 0
-0.310297 -1.16535 0
-0.509054 -1.0261 0
-0.574835 -0.789344 0
-0.00992738 -0.916663 0
-0.222765 -0.902505 0
-0.307988 -0.727643 0
0.613773 -0.508485 0
0.309938 -0.754524 0
-0.00992738 -0.916663 0
1.01539 -0.232887 0
0.708082 -0.51257 0
0.44216 -0.683231 0
1.25604 -0.0976432 0
1.04997 -0.319596 0
0.776095 -0.465288 0
-0.00992738 -0.916663 0
-0.222765 -0.902505 0
-0.307988 -0.727643 0
0.44216 -0.683231 0
0.209348 -0.74764 0
0.0352621 -0.637553 0
0.776095 -0.465288 0
0.575847 -0.539439 0
0.311987 -0.531381 0
1.95936 1.10374 0
1.74755 0.732854 0
1.60908 0.480953 0
1.96647 1.04585 0
2.01589 0.851457 0
1.91562 0.602713 0
1.93083 0.88663 0
2.03071 0.806967 0
2.09077 0.677894 0
1.60908 0.480953 0
1.40405 0.126048 0
1.25604 -0.0976432 0
1.91562 0.602713 0
1.76393 0.307582 0
1.5374 0.0385744 0
2.09077 0.677894 0
2.03231 0.476459 0
1.91253 0.2702 0
1.93083 0.88663 0
2.03071 0.806967 0
2.09077 0.677894 0
1.90694 0.784653 0
2.02264 0.726819 0
2.10762 0.627349 0
1.75496 0.61464 0
1.92074 0.576286 0
2.08634 0.522267 0
2.09077 0.677894 0
2.03231 0.476459 0
1.91253 0.2702 0
2.10762 0.627349 0
2.11575 0.47005 0
2.08883 0.304558 0
2.08634 0.522267 0
2.17871 0.39723 0
2.23578 0.266463 0
1.25604 -0.0976432 0
1.04997 -0.319596 0
0.776095 -0.465288 0
1.5374 0.0385744 0
1.31934 -0.163854 0
1.01925 -0.321438 0
1.91253 0.2702 0
1.68401 0.0906771 0
1.42973 -0.0362447 0
0.776095 -0.465288 0
0.575847 -0.539439 0
0.311987 -0.531381 0
1.01925 -0.321438 0
0.836904 -0.360874 0
0.56113 -0.35904 0
1.42973 -0.0362447 0
1.19792 -0.0899587 0
0.967734 -0.100868 0
1.91253 0.2702 0
1.68401 0.0906771 0
1.42973 -0.0362447 0
2.08883 0.304558 0
1.9739 0.139345 0
1.84657 0.0131481 0
2.23578 0.266463 0
2.21356 0.123801 0
2.17352 0.0119431 0
1.42973 -0.0362447 0
1.19792 -0.0899587 0
0.967734 -0.100868 0
1.84657 0.0131481 0
1.73518 -0.0820054 0
1.64904 -0.134223 0
2.17352 0.0119431 0
2.1279 -0.0774402 0
2.0795 -0.136077 0
1.07078 0.161277 0
1.09379 0.0718924 0
1.15531 -0.0413517 0
0.771901 0.121929 0
0.898353 0.0238553 0
1.00832 -0.096163 0
0.361208 0.00354393 0
0.55414 -0.166359 0
0.727554 -0.205474 0
1.15531 -0.0413517 0
1.22962 -0.166302 0
1.34316 -0.296438 0
1.00832 -0.096163 0
1.07952 -0.252595 0
1.16139 -0.397189 0
0.727554 -0.205474 0
0.87478 -0.365172 0
1.02533 -0.562077 0
0.361208 0.00354393 0
0.55414 -0.166359 0
0.727554 -0.205474 0
0.211002 0.0568969 0
0.244401 -0.282652 0
0.40754 -0.482707 0
0.142856 0.110029 0
0.0815825 -0.251788 0
0.0960316 -0.573222 0
0.727554 -0.205474 0
0.87478 -0.365172 0
1.02533 -0.562077 0
0.40754 -0.482707 0
0.682641 -0.579949 0
0.876421 -0.737301 0
0.0960316 -0.573222 0
0.361477 -0.76119 0
0.576287 -0.931334 0
1.34316 -0.296438 0
1.45595 -0.374678 0
1.58131 -0.414149 0
1.16139 -0.397189 0
1.31974 -0.52987 0
1.52206 -0.605939 0
1.02533 -0.562077 0
1.29853 -0.71313 0
1.59988 -0.799982 0
1.58131 -0.414149 0
1.67901 -0.413885 0
1.80357 -0.38055 0
1.52206 -0.605939 0
1.74809 -0.637502 0
1.99246 -0.590902 0
1.59988 -0.799982 0
1.84289 -0.790059 0
1.98289 -0.658178 0
1.02533 -0.562077 0
1.29853 -0.71313 0
1.59988 -0.799982 0
0.876421 -0.737301 0
1.15871 -0.93805 0
1.38426 -1.00315 0
0.576287 -0.931334 0
0.824621 -1.09855 0
0.960596 -1.13594 0
1.59988 -0.799982 0
1.84289 -0.790059 0
1.98289 -0.658178 0
1.38426 -1.00315 0
1.45758 -0.963883 0
1.46975 -0.757168 0
0.960596 -1.13594 0
0.967387 -1.08751 0
0.988353 -0.811969 0
0.142856 0.110029 0
0.0815825 -0.251788 0
0.0960316 -0.573222 0
0.179681 0.171883 0
0.0452829 -0.277948 0
-0.0655891 -0.76977 0
0.309972 0.383159 0
0.117784 -0.0745222 0
-0.0966937 -0.631169 0
0.0960316 -0.573222 0
0.361477 -0.76119 0
0.576287 -0.931334 0
-0.0655891 -0.76977 0
0.0606174 -0.99199 0
0.110073 -1.18477 0
-0.0966937 -0.631169 0
-0.100324 -1.05066 0
-0.220383 -1.2936 0
0.309972 0.383159 0
0.117784 -0.0745222 0
-0.0966937 -0.631169 0
0.500147 0.479296 0
0.342423 0.0379156 0
0.0917964 -0.453209 0
0.75308 0.684124 0
0.652662 0.271017 0
0.403599 -0.238747 0
-0.0966937 -0.631169 0
-0.100324 -1.05066 0
-0.220383 -1.2936 0
0.0917964 -0.453209 0
-0.073311 -0.859179 0
-0.301149 -1.14622 0
0.403599 -0.238747 0
0.190698 -0.570429 0
-0.118711 -0.852587 0
0.576287 -0.931334 0
0.824621 -1.09855 0
0.960596 -1.13594 0
0.110073 -1.18477 0
0.333018 -1.26796 0
0.460316 -1.19301 0
-0.220383 -1.2936 0
-0.102508 -1.41694 0
0.0329775 -1.2332 0
0.960596 -1.13594 0
0.967387 -1.08751 0
0.988353 -0.811969 0
0.460316 -1.19301 0
0.437509 -1.08958 0
0.443224 -0.688462 0
0.0329775 -1.2332 0
-0.0666308 -1.11787 0
-0.0633443 -0.761992 0
-0.220383 -1.2936 0
-0.102508 -1.41694 0
0.0329775 -1.2332 0
-0.301149 -1.14622 0
-0.392008 -1.43609 0
-0.305668 -1.30173 0
-0.118711 -0.852587 0
-0.397676 -1.27142 0
-0.475924 -1.35857 0
0.0329775 -1.2332 0
-0.0666308 -1.11787 0
-0.0633443 -0.761992 0
-0.305668 -1.30173 0
-0.421913 -1.08362 0
-0.463199 -0.813304 0
-0.475924 -1.35857 0
-0.584393 -1.10723 0
-0.645163 -0.864049 0
0 0 0
0 0 0
0 0 0
0.390191 0.00886182 0
0.374581 0.00470512 0
0.378229 0.000623295 0
0.772803 0.0305066 0
0.763985 0.0214439 0
0.757627 0.0111741 0
0 0 0
0 0 0
0 0 0
0.378229 0.000623295 0
0.37785 -0.00370798 0
0.392914 -0.00816185 0
0.757627 0.0111741 0