# vtk DataFile Version 3.0
#This file was generated by the deal.II library on 2025/1/4 at 10:14:40
ASCII
DATASET UNSTRUCTURED_GRID

POINTS 8640 double
1.1 1.1 0
0.9625 1.09063 0
0.825 1.08125 0
1.0875 0.9625 0
0.951563 0.954297 0
0.815625 0.946094 0
1.075 0.825 0
0.940625 0.817969 0
0.80625 0.810937 0
0.825 1.08125 0
0.6875 1.07187 0
0.55 1.0625 0
0.815625 0.946094 0
0.679688 0.937891 0
0.54375 0.929688 0
0.80625 0.810937 0
0.671875 0.803906 0
0.5375 0.796875 0
1.075 0.825 0
0.940625 0.817969 0
0.80625 0.810937 0
1.0625 0.6875 0
0.929688 0.681641 0
0.796875 0.675781 0
1.05 0.55 0
0.91875 0.545313 0
0.7875 0.540625 0
0.80625 0.810937 0
0.671875 0.803906 0
0.5375 0.796875 0
0.796875 0.675781 0
0.664062 0.669922 0
0.53125 0.664062 0
0.7875 0.540625 0
0.65625 0.535937 0
0.525 0.53125 0
0.55 1.0625 0
0.4125 1.05313 0
0.275 1.04375 0
0.54375 0.929688 0
0.407813 0.921484 0
0.271875 0.913281 0
0.5375 0.796875 0
0.403125 0.789844 0
0.26875 0.782813 0
0.275 1.04375 0
0.1375 1.03437 0
0 1.025 0
0.271875 0.913281 0
0.135938 0.905078 0
0 0.896875 0
0.26875 0.782813 0
0.134375 0.775781 0
0 0.76875 0
0.5375 0.796875 0
0.403125 0.789844 0
0.26875 0.782813 0
0.53125 0.664062 0
0.398438 0.658203 0
0.265625 0.652344 0
0.525 0.53125 0
0.39375 0.526563 0
0.2625 0.521875 0
0.26875 0.782813 0
0.134375 0.775781 0
0 0.76875 0
0.265625 0.652344 0
0.132812 0.646484 0
0 0.640625 0
0.2625 0.521875 0
0.13125 0.517187 0
0 0.5125 0
1.05 0.55 0
0.91875 0.545313 0
0.7875 0.540625 0
1.0375 0.4125 0
0.907812 0.408984 0
0.778125 0.405469 0
1.025 0.275 0
0.896875 0.272656 0
0.76875 0.270313 0
0.7875 0.540625 0
0.65625 0.535937 0
0.525 0.53125 0
0.778125 0.405469 0
0.648438 0.401953 0
0.51875 0.398438 0
0.76875 0.270313 0
0.640625 0.267969 0
0.5125 0.265625 0
1.025 0.275 0
0.896875 0.272656 0
0.76875 0.270313 0
1.0125 0.1375 0
0.885937 0.136328 0
0.759375 0.135156 0
1 0 0
0.875 0 0
0.75 0 0
0.76875 0.270313 0
0.640625 0.267969 0
0.5125 0.265625 0
0.759375 0.135156 0
0.632812 0.133984 0
0.50625 0.132812 0
0.75 0 0
0.625 0 0
0.5 0 0
0.525 0.53125 0
0.39375 0.526563 0
0.2625 0.521875 0
0.51875 0.398438 0
0.389062 0.394922 0
0.259375 0.391406 0
0.5125 0.265625 0
0.384375 0.263281 0
0.25625 0.260937 0
0.2625 0.521875 0
0.13125 0.517187 0
0 0.5125 0
0.259375 0.391406 0
0.129688 0.387891 0
0 0.384375 0
0.25625 0.260937 0
0.128125 0.258594 0
0 0.25625 0
0.5125 0.265625 0
0.384375 0.263281 0
0.25625 0.260937 0
0.50625 0.132812 0
0.379687 0.131641 0
0.253125 0.130469 0
0.5 0 0
0.375 0 0
0.25 0 0
0.25625 0.260937 0
0.128125 0.258594 0
0 0.25625 0
0.253125 0.130469 0
0.126562 0.129297 0
0 0.128125 0
0.25 0 0
0.125 0 0
0 0 0
2 1 0
1.8875 1.0125 0
1.775 1.025 0
2 0.875 0
1.88594 0.885938 0
1.77188 0.896875 0
2 0.75 0
1.88437 0.759375 0
1.76875 0.76875 0
1.775 1.025 0
1.6625 1.0375 0
1.55 1.05 0
1.77188 0.896875 0
1.65781 0.907813 0
1.54375 0.91875 0
1.76875 0.76875 0
1.65313 0.778125 0
1.5375 0.7875 0
2 0.75 0
1.88437 0.759375 0
1.76875 0.76875 0
2 0.625 0
1.88281 0.632812 0
1.76562 0.640625 0
2 0.5 0
1.88125 0.50625 0
1.7625 0.5125 0
1.76875 0.76875 0
1.65313 0.778125 0
1.5375 0.7875 0
1.76562 0.640625 0
1.64844 0.648438 0
1.53125 0.65625 0
1.7625 0.5125 0
1.64375 0.51875 0
1.525 0.525 0
1.55 1.05 0
1.4375 1.0625 0
1.325 1.075 0
1.54375 0.91875 0
1.42969 0.929688 0
1.31563 0.940625 0
1.5375 0.7875 0
1.42188 0.796875 0
1.30625 0.80625 0
1.325 1.075 0
1.2125 1.0875 0
1.1 1.1 0
1.31563 0.940625 0
1.20156 0.951563 0
1.0875 0.9625 0
1.30625 0.80625 0
1.19063 0.815625 0
1.075 0.825 0
1.5375 0.7875 0
1.42188 0.796875 0
1.30625 0.80625 0
1.53125 0.65625 0
1.41406 0.664062 0
1.29688 0.671875 0
1.525 0.525 0
1.40625 0.53125 0
1.2875 0.5375 0
1.30625 0.80625 0
1.19063 0.815625 0
1.075 0.825 0
1.29688 0.671875 0
1.17969 0.679688 0
1.0625 0.6875 0
1.2875 0.5375 0
1.16875 0.54375 0
1.05 0.55 0
2 0.5 0
1.88125 0.50625 0
1.7625 0.5125 0
2 0.375 0
1.87969 0.379687 0
1.75938 0.384375 0
2 0.25 0
1.87813 0.253125 0
1.75625 0.25625 0
1.7625 0.5125 0
1.64375 0.51875 0
1.525 0.525 0
1.75938 0.384375 0
1.63906 0.389063 0
1.51875 0.39375 0
1.75625 0.25625 0
1.63438 0.259375 0
1.5125 0.2625 0
2 0.25 0
1.87813 0.253125 0
1.75625 0.25625 0
2 0.125 0
1.87656 0.126562 0
1.75313 0.128125 0
2 0 0
1.875 0 0
1.75 0 0
1.75625 0.25625 0
1.63438 0.259375 0
1.5125 0.2625 0
1.75313 0.128125 0
1.62969 0.129688 0
1.50625 0.13125 0
1.75 0 0
1.625 0 0
1.5 0 0
1.525 0.525 0
1.40625 0.53125 0
1.2875 0.5375 0
1.51875 0.39375 0
1.39844 0.398438 0
1.27813 0.403125 0
1.5125 0.2625 0
1.39062 0.265625 0
1.26875 0.26875 0
1.2875 0.5375 0
1.16875 0.54375 0
1.05 0.55 0
1.27813 0.403125 0
1.15781 0.407813 0
1.0375 0.4125 0
1.26875 0.26875 0
1.14688 0.271875 0
1.025 0.275 0
1.5125 0.2625 0
1.39062 0.265625 0
1.26875 0.26875 0
1.50625 0.13125 0
1.38281 0.132812 0
1.25937 0.134375 0
1.5 0 0
1.375 0 0
1.25 0 0
1.26875 0.26875 0
1.14688 0.271875 0
1.025 0.275 0
1.25937 0.134375 0
1.13594 0.135938 0
1.0125 0.1375 0
1.25 0 0
1.125 0 0
1 0 0
1 2 0
0.875 2.00625 0
0.75 2.0125 0
1.0125 1.8875 0
0.885938 1.8918 0
0.759375 1.89609 0
1.025 1.775 0
0.896875 1.77734 0
0.76875 1.77969 0
0.75 2.0125 0
0.625 2.01875 0
0.5 2.025 0
0.759375 1.89609 0
0.632812 1.90039 0
0.50625 1.90469 0
0.76875 1.77969 0
0.640625 1.78203 0
0.5125 1.78437 0
1.025 1.775 0
0.896875 1.77734 0
0.76875 1.77969 0
1.0375 1.6625 0
0.907813 1.66289 0
0.778125 1.66328 0
1.05 1.55 0
0.91875 1.54844 0
0.7875 1.54688 0
0.76875 1.77969 0
0.640625 1.78203 0
0.5125 1.78437 0
0.778125 1.66328 0
0.648438 1.66367 0
0.51875 1.66406 0
0.7875 1.54688 0
0.65625 1.54531 0
0.525 1.54375 0
0.5 2.025 0
0.375 2.03125 0
0.25 2.0375 0
0.50625 1.90469 0
0.379687 1.90898 0
0.253125 1.91328 0
0.5125 1.78437 0
0.384375 1.78672 0
0.25625 1.78906 0
0.25 2.0375 0
0.125 2.04375 0
0 2.05 0
0.253125 1.91328 0
0.126562 1.91758 0
0 1.92187 0
0.25625 1.78906 0
0.128125 1.79141 0
0 1.79375 0
0.5125 1.78437 0
0.384375 1.78672 0
0.25625 1.78906 0
0.51875 1.66406 0
0.389062 1.66445 0
0.259375 1.66484 0
0.525 1.54375 0
0.39375 1.54219 0
0.2625 1.54062 0
0.25625 1.78906 0
0.128125 1.79141 0
0 1.79375 0
0.259375 1.66484 0
0.129688 1.66523 0
0 1.66562 0
0.2625 1.54062 0
0.13125 1.53906 0
0 1.5375 0
1.05 1.55 0
0.91875 1.54844 0
0.7875 1.54688 0
1.0625 1.4375 0
0.929688 1.43398 0
0.796875 1.43047 0
1.075 1.325 0
0.940625 1.31953 0
0.80625 1.31406 0
0.7875 1.54688 0
0.65625 1.54531 0
0.525 1.54375 0
0.796875 1.43047 0
0.664062 1.42695 0
0.53125 1.42344 0
0.80625 1.31406 0
0.671875 1.30859 0
0.5375 1.30312 0
1.075 1.325 0
0.940625 1.31953 0
0.80625 1.31406 0
1.0875 1.2125 0
0.951563 1.20508 0
0.815625 1.19766 0
1.1 1.1 0
0.9625 1.09063 0
0.825 1.08125 0
0.80625 1.31406 0
0.671875 1.30859 0
0.5375 1.30312 0
0.815625 1.19766 0
0.679688 1.19023 0
0.54375 1.18281 0
0.825 1.08125 0
0.6875 1.07187 0
0.55 1.0625 0
0.525 1.54375 0
0.39375 1.54219 0
0.2625 1.54062 0
0.53125 1.42344 0
0.398438 1.41992 0
0.265625 1.41641 0
0.5375 1.30312 0
0.403125 1.29766 0
0.26875 1.29219 0
0.2625 1.54062 0
0.13125 1.53906 0
0 1.5375 0
0.265625 1.41641 0
0.132812 1.41289 0
0 1.40937 0
0.26875 1.29219 0
0.134375 1.28672 0
0 1.28125 0
0.5375 1.30312 0
0.403125 1.29766 0
0.26875 1.29219 0
0.54375 1.18281 0
0.407813 1.17539 0
0.271875 1.16797 0
0.55 1.0625 0
0.4125 1.05313 0
0.275 1.04375 0
0.26875 1.29219 0
0.134375 1.28672 0
0 1.28125 0
0.271875 1.16797 0
0.135938 1.16055 0
0 1.15312 0
0.275 1.04375 0
0.1375 1.03437 0
0 1.025 0
2.9 1.1 0
2.7875 1.0875 0
2.675 1.075 0
2.9125 0.9625 0
2.79844 0.951563 0
2.68438 0.940625 0
2.925 0.825 0
2.80938 0.815625 0
2.69375 0.80625 0
2.675 1.075 0
2.5625 1.0625 0
2.45 1.05 0
2.68438 0.940625 0
2.57031 0.929688 0
2.45625 0.91875 0
2.69375 0.80625 0
2.57812 0.796875 0
2.4625 0.7875 0
2.925 0.825 0
2.80938 0.815625 0
2.69375 0.80625 0
2.9375 0.6875 0
2.82031 0.679688 0
2.70312 0.671875 0
2.95 0.55 0
2.83125 0.54375 0
2.7125 0.5375 0
2.69375 0.80625 0
2.57812 0.796875 0
2.4625 0.7875 0
2.70312 0.671875 0
2.58594 0.664062 0
2.46875 0.65625 0
2.7125 0.5375 0
2.59375 0.53125 0
2.475 0.525 0
2.45 1.05 0
2.3375 1.0375 0
2.225 1.025 0
2.45625 0.91875 0
2.34219 0.907813 0
2.22813 0.896875 0
2.4625 0.7875 0
2.34688 0.778125 0
2.23125 0.76875 0
2.225 1.025 0
2.1125 1.0125 0
2 1 0
2.22813 0.896875 0
2.11406 0.885938 0
2 0.875 0
2.23125 0.76875 0
2.11563 0.759375 0
2 0.75 0
2.4625 0.7875 0
2.34688 0.778125 0
2.23125 0.76875 0
2.46875 0.65625 0
2.35156 0.648438 0
2.23438 0.640625 0
2.475 0.525 0
2.35625 0.51875 0
2.2375 0.5125 0
2.23125 0.76875 0
2.11563 0.759375 0
2 0.75 0
2.23438 0.640625 0
2.11719 0.632812 0
2 0.625 0
2.2375 0.5125 0
2.11875 0.50625 0
2 0.5 0
2.95 0.55 0
2.83125 0.54375 0
2.7125 0.5375 0
2.9625 0.4125 0
2.84219 0.407813 0
2.72188 0.403125 0
2.975 0.275 0
2.85313 0.271875 0
2.73125 0.26875 0
2.7125 0.5375 0
2.59375 0.53125 0
2.475 0.525 0
2.72188 0.403125 0
2.60156 0.398438 0
2.48125 0.39375 0
2.73125 0.26875 0
2.60938 0.265625 0
2.4875 0.2625 0
2.975 0.275 0
2.85313 0.271875 0
2.73125 0.26875 0
2.9875 0.1375 0
2.86406 0.135938 0
2.74063 0.134375 0
3 0 0
2.875 0 0
2.75 0 0
2.73125 0.26875 0
2.60938 0.265625 0
2.4875 0.2625 0
2.74063 0.134375 0
2.61719 0.132812 0
2.49375 0.13125 0
2.75 0 0
2.625 0 0
2.5 0 0
2.475 0.525 0
2.35625 0.51875 0
2.2375 0.5125 0
2.48125 0.39375 0
2.36094 0.389063 0
2.24062 0.384375 0
2.4875 0.2625 0
2.36562 0.259375 0
2.24375 0.25625 0
2.2375 0.5125 0
2.11875 0.50625 0
2 0.5 0
2.24062 0.384375 0
2.12031 0.379687 0
2 0.375 0
2.24375 0.25625 0
2.12188 0.253125 0
2 0.25 0
2.4875 0.2625 0
2.36562 0.259375 0
2.24375 0.25625 0
2.49375 0.13125 0
2.37031 0.129688 0
2.24688 0.128125 0
2.5 0 0
2.375 0 0
2.25 0 0
2.24375 0.25625 0
2.12188 0.253125 0
2 0.25 0
2.24688 0.128125 0
2.12344 0.126562 0
2 0.125 0
2.25 0 0
2.125 0 0
2 0 0
4 1 0
3.8625 1.0125 0
3.725 1.025 0
4 0.875 0
3.86406 0.885938 0
3.72813 0.896875 0
4 0.75 0
3.86563 0.759375 0
3.73125 0.76875 0
3.725 1.025 0
3.5875 1.0375 0
3.45 1.05 0
3.72813 0.896875 0
3.59219 0.907813 0
3.45625 0.91875 0
3.73125 0.76875 0
3.59688 0.778125 0
3.4625 0.7875 0
4 0.75 0
3.86563 0.759375 0
3.73125 0.76875 0
4 0.625 0
[...]
POINT_DATA 8640
VECTORS v double
1.24914 -0.313459 0
1.23168 -0.262604 0
1.19301 -0.204765 0
1.1783 -0.27737 0
1.14725 -0.232013 0
1.11119 -0.187585 0
1.09128 -0.240443 0
1.05161 -0.201956 0
1.01827 -0.16472 0
1.19301 -0.204765 0
1.18585 -0.16388 0
1.16307 -0.118398 0
1.11119 -0.187585 0
1.09335 -0.147474 0
1.07093 -0.111178 0
1.01827 -0.16472 0
0.990159 -0.129651 0
0.968682 -0.0985848 0
1.09128 -0.240443 0
1.05161 -0.201956 0
1.01827 -0.16472 0
0.975975 -0.189486 0
0.934675 -0.160887 0
0.897982 -0.132793 0
0.84016 -0.147814 0
0.799584 -0.126987 0
0.764013 -0.105833 0
1.01827 -0.16472 0
0.990159 -0.129651 0
0.968682 -0.0985848 0
0.897982 -0.132793 0
0.868603 -0.10594 0
0.84446 -0.080574 0
0.764013 -0.105833 0
0.734323 -0.0847363 0
0.710032 -0.0646662 0
1.16307 -0.118398 0
1.15649 -0.0867627 0
1.13764 -0.0519714 0
1.07093 -0.111178 0
1.05835 -0.0805686 0
1.04101 -0.0499416 0
0.968682 -0.0985848 0
0.948602 -0.0698213 0
0.933994 -0.0436168 0
1.13764 -0.0519714 0
1.13573 -0.026634 0
1.125 0 0
1.04101 -0.0499416 0
1.035 -0.0234428 0
1.02539 0 0
0.933994 -0.0436168 0
0.921608 -0.0199989 0
0.914062 0 0
0.968682 -0.0985848 0
0.948602 -0.0698213 0
0.933994 -0.0436168 0
0.84446 -0.080574 0
0.824624 -0.0571365 0
0.809804 -0.0359169 0
0.710032 -0.0646662 0
0.690226 -0.0461358 0
0.675348 -0.0291581 0
0.933994 -0.0436168 0
0.921608 -0.0199989 0
0.914062 0 0
0.809804 -0.0359169 0
0.798242 -0.016908 0
0.791016 0 0
0.675348 -0.0291581 0
0.663726 -0.0138269 0
0.65625 0 0
0.84016 -0.147814 0
0.799584 -0.126987 0
0.764013 -0.105833 0
0.692056 -0.101311 0
0.651241 -0.0869533 0
0.615225 -0.0722306 0
0.522546 -0.0598036 0
0.483811 -0.0519506 0
0.449524 -0.0438763 0
0.764013 -0.105833 0
0.734323 -0.0847363 0
0.710032 -0.0646662 0
0.615225 -0.0722306 0
0.584887 -0.0577539 0
0.560367 -0.043824 0
0.449524 -0.0438763 0
0.420546 -0.0356828 0
0.397298 -0.0277439 0
0.522546 -0.0598036 0
0.483811 -0.0519506 0
0.449524 -0.0438763 0
0.309698 -0.0185054 0
0.278967 -0.0156595 0
0.253365 -0.0129305 0
0 0 0
0 0 0
0 0 0
0.449524 -0.0438763 0
0.420546 -0.0356828 0
0.397298 -0.0277439 0
0.253365 -0.0129305 0
0.230734 -0.0101252 0
0.213754 -0.0075854 0
0 0 0
0 0 0
0 0 0
0.710032 -0.0646662 0
0.690226 -0.0461358 0
0.675348 -0.0291581 0
0.560367 -0.043824 0
0.540494 -0.0307769 0
0.526212 -0.0188082 0
0.397298 -0.0277439 0
0.378719 -0.020171 0
0.36579 -0.0131071 0
0.675348 -0.0291581 0
0.663726 -0.0138269 0
0.65625 0 0
0.526212 -0.0188082 0
0.515703 -0.00842308 0
0.509766 0 0
0.36579 -0.0131071 0
0.356508 -0.00655785 0
0.351562 0 0
0.397298 -0.0277439 0
0.378719 -0.020171 0
0.36579 -0.0131071 0
0.213754 -0.0075854 0
0.199794 -0.00516729 0
0.190879 -0.00300935 0
0 0 0
0 0 0
0 0 0
0.36579 -0.0131071 0
0.356508 -0.00655785 0
0.351562 0 0
0.190879 -0.00300935 0
0.184416 -0.00109993 0
0.181641 0 0
0 0 0
0 0 0
0 0 0
1.75027 -0.405117 0
1.70896 -0.465781 0
1.59074 -0.481125 0
1.6244 -0.322495 0
1.56333 -0.362035 0
1.48097 -0.386427 0
1.479 -0.246496 0
1.42578 -0.287232 0
1.3697 -0.313997 0
1.59074 -0.481125 0
1.53688 -0.488086 0
1.4323 -0.463988 0
1.48097 -0.386427 0
1.41998 -0.394302 0
1.34329 -0.388716 0
1.3697 -0.313997 0
1.31261 -0.326126 0
1.25684 -0.325699 0
1.479 -0.246496 0
1.42578 -0.287232 0
1.3697 -0.313997 0
1.35271 -0.188941 0
1.30783 -0.215797 0
1.25271 -0.234616 0
1.18681 -0.124169 0
1.14227 -0.147275 0
1.0939 -0.164833 0
1.3697 -0.313997 0
1.31261 -0.326126 0
1.25684 -0.325699 0
1.25271 -0.234616 0
1.20069 -0.243544 0
1.14328 -0.244326 0
1.0939 -0.164833 0
1.04556 -0.17561 0
0.996292 -0.180459 0
1.4323 -0.463988 0
1.38916 -0.441142 0
1.31636 -0.396413 0
1.34329 -0.388716 0
1.29792 -0.371014 0
1.24077 -0.344417 0
1.25684 -0.325699 0
1.20669 -0.313544 0
1.16157 -0.293597 0
1.31636 -0.396413 0
1.29336 -0.361548 0
1.24914 -0.313459 0
1.24077 -0.344417 0
1.2134 -0.312418 0
1.1783 -0.27737 0
1.16157 -0.293597 0
1.12339 -0.267983 0
1.09128 -0.240443 0
1.25684 -0.325699 0
1.20669 -0.313544 0
1.16157 -0.293597 0
1.14328 -0.244326 0
1.09606 -0.237828 0
1.04813 -0.225607 0
0.996292 -0.180459 0
0.95243 -0.179054 0
0.910139 -0.172842 0
1.16157 -0.293597 0
1.12339 -0.267983 0
1.09128 -0.240443 0
1.04813 -0.225607 0
1.01085 -0.209362 0
0.975975 -0.189486 0
0.910139 -0.172842 0
0.873613 -0.161948 0
0.84016 -0.147814 0
1.18681 -0.124169 0
1.14227 -0.147275 0
1.0939 -0.164833 0
1.02423 -0.086364 0
0.986917 -0.103072 0
0.942898 -0.115572 0
0.843278 -0.0411064 0
0.809104 -0.0523303 0
0.767998 -0.0611382 0
1.0939 -0.164833 0
1.04556 -0.17561 0
0.996292 -0.180459 0
0.942898 -0.115572 0
0.899193 -0.122794 0
0.851723 -0.125396 0
0.767998 -0.0611382 0
0.72607 -0.0666812 0
0.68042 -0.0694787 0
0.843278 -0.0411064 0
0.809104 -0.0523303 0
0.767998 -0.0611382 0
0.54798 -0.0129236 0
0.528128 -0.0168629 0
0.499633 -0.0198994 0
0 0 0
0 0 0
0 0 0
0.767998 -0.0611382 0
0.72607 -0.0666812 0
0.68042 -0.0694787 0
0.499633 -0.0198994 0
0.470166 -0.0219591 0
0.435354 -0.0227383 0
0 0 0
0 0 0
0 0 0
0.996292 -0.180459 0
0.95243 -0.179054 0
0.910139 -0.172842 0
0.851723 -0.125396 0
0.808809 -0.123705 0
0.765477 -0.118716 0
0.68042 -0.0694787 0
0.638396 -0.069787 0
0.595835 -0.068161 0
0.910139 -0.172842 0
0.873613 -0.161948 0
0.84016 -0.147814 0
0.765477 -0.118716 0
0.727509 -0.111186 0
0.692056 -0.101311 0
0.595835 -0.068161 0
0.558161 -0.064819 0
0.522546 -0.0598036 0
0.68042 -0.0694787 0
0.638396 -0.069787 0
0.595835 -0.068161 0
0.435354 -0.0227383 0
0.402885 -0.022757 0
0.369153 -0.0218588 0
0 0 0
0 0 0
0 0 0
0.595835 -0.068161 0
0.558161 -0.064819 0
0.522546 -0.0598036 0
0.369153 -0.0218588 0
0.338329 -0.0205354 0
0.309698 -0.0185054 0
0 0 0
0 0 0
0 0 0
1.25074 -0.0808647 0
1.32252 -0.0636018 0
1.37922 -0.0470415 0
1.26797 -0.162104 0
1.33047 -0.124109 0
1.38316 -0.0919166 0
1.27083 -0.219807 0
1.32368 -0.16894 0
1.37233 -0.127288 0
1.37922 -0.0470415 0
1.42025 -0.0343659 0
1.45064 -0.022778 0
1.38316 -0.0919166 0
1.41953 -0.0678911 0
1.44861 -0.0478637 0
1.37233 -0.127288 0
1.40391 -0.0952473 0
1.4322 -0.0683498 0
1.27083 -0.219807 0
1.32368 -0.16894 0
1.37233 -0.127288 0
1.28764 -0.288583 0
1.32843 -0.222038 0
1.36607 -0.167781 0
1.30742 -0.31567 0
1.32976 -0.245568 0
1.35136 -0.187095 0
1.37233 -0.127288 0
1.40391 -0.0952473 0
1.4322 -0.0683498 0
1.36607 -0.167781 0
1.39042 -0.126807 0
1.41309 -0.0918233 0
1.35136 -0.187095 0
1.36706 -0.142777 0
1.38264 -0.10341 0
1.45064 -0.022778 0
1.47323 -0.0141915 0
1.48731 -0.00678591 0
1.44861 -0.0478637 0
1.46897 -0.0322435 0
1.48301 -0.0185381 0
1.4322 -0.0683498 0
1.45056 -0.0463399 0
1.46584 -0.0275038 0
1.48731 -0.00678591 0
1.49749 -0.00239202 0
1.5 0 0
1.48301 -0.0185381 0
1.4914 -0.00778223 0
1.49414 0 0
1.46584 -0.0275038 0
1.47293 -0.0122689 0
1.47656 0 0
1.4322 -0.0683498 0
1.45056 -0.0463399 0
1.46584 -0.0275038 0
1.41309 -0.0918233 0
1.42718 -0.0637325 0
1.43975 -0.0390994 0
1.38264 -0.10341 0
1.3922 -0.0718337 0
1.4014 -0.0437863 0
1.46584 -0.0275038 0
1.47293 -0.0122689 0
1.47656 0 0
1.43975 -0.0390994 0
1.44443 -0.0185603 0
1.44727 0 0
1.4014 -0.0437863 0
1.40426 -0.0209805 0
1.40625 0 0
1.30742 -0.31567 0
1.32976 -0.245568 0
1.35136 -0.187095 0
1.30483 -0.341526 0
1.31794 -0.271718 0
1.32481 -0.209395 0
1.30462 -0.343042 0
1.30527 -0.27598 0
1.29404 -0.213616 0
1.35136 -0.187095 0
1.36706 -0.142777 0
1.38264 -0.10341 0
1.32481 -0.209395 0
1.33576 -0.162883 0
1.34265 -0.118266 0
1.29404 -0.213616 0
1.29815 -0.166709 0
1.29422 -0.120623 0
1.30462 -0.343042 0
1.30527 -0.27598 0
1.29404 -0.213616 0
1.2837 -0.333733 0
1.27024 -0.275323 0
1.249 -0.215118 0
1.24914 -0.313459 0
1.23168 -0.262604 0
1.19301 -0.204765 0
1.29404 -0.213616 0
1.29815 -0.166709 0
1.29422 -0.120623 0
1.249 -0.215118 0
1.24406 -0.17098 0
1.23435 -0.124347 0
1.19301 -0.204765 0
1.18585 -0.16388 0
1.16307 -0.118398 0
1.38264 -0.10341 0
1.3922 -0.0718337 0
1.4014 -0.0437863 0
1.34265 -0.118266 0
1.34876 -0.0837201 0
1.35184 -0.0517905 0
1.29422 -0.120623 0
1.29587 -0.0858264 0
1.29128 -0.052294 0
1.4014 -0.0437863 0
1.40426 -0.0209805 0
1.40625 0 0
1.35184 -0.0517905 0
1.35403 -0.0263552 0
1.35352 0 0
1.29128 -0.052294 0
1.29243 -0.0262296 0
1.28906 0 0
1.29422 -0.120623 0
1.29587 -0.0858264 0
1.29128 -0.052294 0
1.23435 -0.124347 0
1.22923 -0.0899223 0
1.22012 -0.0550263 0
1.16307 -0.118398 0
1.15649 -0.0867627 0
1.13764 -0.0519714 0
1.29128 -0.052294 0
1.29243 -0.0262296 0
1.28906 0 0
1.22012 -0.0550263 0
1.21799 -0.0285474 0
1.21289 0 0
1.13764 -0.0519714 0
1.13573 -0.026634 0
1.125 0 0
2.01106 0.326525 0
2.12621 0.187173 0
2.0611 0.0920813 0
1.96388 0.303743 0
1.96639 0.215952 0
1.96572 0.11834 0
1.66551 0.284045 0
1.70937 0.20646 0
1.71372 0.132552 0
2.0611 0.0920813 0
2.12084 -0.021567 0
2.0331 -0.102269 0
1.96572 0.11834 0
1.94086 0.0279163 0
1.90824 -0.0662032 0
1.71372 0.132552 0
1.71766 0.0531893 0
1.69247 -0.021308 0
1.66551 0.284045 0
1.70937 0.20646 0
1.71372 0.132552 0
1.51964 0.205537 0
1.54178 0.151778 0
1.55119 0.0932991 0
1.34752 0.183802 0
1.36946 0.140848 0
1.37762 0.0966787 0
1.71372 0.132552 0
1.71766 0.0531893 0
1.69247 -0.021308 0
1.55119 0.0932991 0
1.54851 0.036809 0
1.53124 -0.0201166 0
1.37762 0.0966787 0
1.37323 0.0517487 0
1.35783 0.00788645 0
2.0331 -0.102269 0
2.05195 -0.204322 0
1.92997 -0.2762 0
1.90824 -0.0662032 0
1.85356 -0.148933 0
1.78324 -0.222167 0
1.69247 -0.021308 0
1.66077 -0.0927373 0
1.61038 -0.153759 0
1.92997 -0.2762 0
1.88425 -0.352379 0
1.75027 -0.405117 0
1.78324 -0.222167 0
1.71533 -0.2788 0
1.6244 -0.322495 0
1.61038 -0.153759 0
1.54754 -0.204121 0
1.479 -0.246496 0
1.69247 -0.021308 0
1.66077 -0.0927373 0
1.61038 -0.153759 0
1.53124 -0.0201166 0
1.50329 -0.0712393 0
1.46094 -0.11884 0
1.35783 0.00788645 0
1.32976 -0.0329591 0
1.29282 -0.0699451 0
1.61038 -0.153759 0
1.54754 -0.204121 0
1.479 -0.246496 0
1.46094 -0.11884 0
1.4132 -0.157948 0
1.35271 -0.188941 0
1.29282 -0.0699451 0
1.24345 -0.0999068 0
1.18681 -0.124169 0
1.34752 0.183802 0
1.36946 0.140848 0
1.37762 0.0966787 0
1.12328 0.13151 0
1.15053 0.105382 0
1.16643 0.0753747 0
0.860452 0.092408 0
0.898153 0.0783265 0
0.925075 0.061695 0
1.37762 0.0966787 0
1.37323 0.0517487 0
1.35783 0.00788645 0
1.16643 0.0753747 0
1.16914 0.0441036 0
1.16045 0.0123789 0
0.925075 0.061695 0
0.938679 0.043062 0
0.941152 0.0235931 0
0.860452 0.092408 0
0.898153 0.0783265 0
0.925075 0.061695 0
0.487111 0.027138 0
0.524818 0.0240831 0
0.556448 0.0196748 0
0 0 0
0 0 0
0 0 0
0.925075 0.061695 0
0.938679 0.043062 0
0.941152 0.0235931 0
0.556448 0.0196748 0
0.578874 0.0144964 0
0.592723 0.00866529 0
0 0 0
0 0 0
0 0 0
1.35783 0.00788645 0
1.32976 -0.0329591 0
1.29282 -0.0699451 0
1.16045 0.0123789 0
1.14022 -0.0171892 0
1.10938 -0.0444149 0
0.941152 0.0235931 0
0.931044 0.00453478 0
0.91111 -0.0135091 0
1.29282 -0.0699451 0
1.24345 -0.0999068 0
1.18681 -0.124169 0
1.10938 -0.0444149 0
1.07094 -0.0672661 0
1.02423 -0.086364 0
0.91111 -0.0135091 0
0.881455 -0.0287201 0
0.843278 -0.0411064 0
0.941152 0.0235931 0
0.931044 0.00453478 0
0.91111 -0.0135091 0
0.592723 0.00866529 0
0.59595 0.00289364 0
0.58909 -0.00305881 0
0 0 0
0 0 0
0 0 0
0.91111 -0.0135091 0
0.881455 -0.0287201 0
0.843278 -0.0411064 0
0.58909 -0.00305881 0
0.573501 -0.00834989 0
0.54798 -0.0129236 0
0 0 0
0 0 0
0 0 0
0.990772 0.364738 0
1.13525 0.453014 0
1.27573 0.538304 0
0.981207 0.281832 0
1.08914 0.361706 0
1.18065 0.425684 0
0.956383 0.19819 0
1.05468 0.271136 0
1.14391 0.332155 0
1.27573 0.538304 0
1.48122 0.597621 0
1.66602 0.63697 0
1.18065 0.425684 0
1.3057 0.468663 0
1.43606 0.50818 0
1.14391 0.332155 0
1.2367 0.369274 0
1.30155 0.385891 0
0.956383 0.19819 0
1.05468 0.271136 0
1.14391 0.332155 0
0.891001 0.134405 0
0.965951 0.195178 0
1.04379 0.249776 0
0.756536 0.0966158 0
0.818802 0.143175 0
0.878668 0.183598 0
1.14391 0.332155 0
1.2367 0.369274 0
1.30155 0.385891 0
1.04379 0.249776 0
1.14286 0.291853 0
1.23738 0.314873 0
0.878668 0.183598 0
0.958142 0.214199 0
1.03368 0.234368 0
1.66602 0.63697 0
1.81709 0.598153 0
1.88224 0.516149 0
1.43606 0.50818 0
1.62219 0.51982 0
1.7815 0.482681 0
1.30155 0.385891 0
1.37412 0.386808 0
1.45803 0.372039 0
1.88224 0.516149 0
1.94838 0.427865 0
2.01106 0.326525 0
1.7815 0.482681 0
1.89256 0.404213 0
1.96388 0.303743 0
1.45803 0.372039 0
1.56781 0.338505 0
1.66551 0.284045 0
1.30155 0.385891 0
1.37412 0.386808 0
1.45803 0.372039 0
1.23738 0.314873 0
1.32967 0.314303 0
1.40291 0.292521 0
1.03368 0.234368 0
1.12244 0.243977 0
1.20777 0.239793 0
1.45803 0.372039 0
1.56781 0.338505 0
1.66551 0.284045 0
1.40291 0.292521 0
1.46746 0.255156 0
1.51964 0.205537 0
1.20777 0.239793 0
1.28643 0.219081 0
1.34752 0.183802 0
0.756536 0.0966158 0
0.818802 0.143175 0
0.878668 0.183598 0
0.57595 0.0586141 0
0.628248 0.0901912 0
0.68194 0.118884 0
0.354136 0.0262794 0
0.397438 0.0438364 0
0.438564 0.0604456 0
0.878668 0.183598 0
0.958142 0.214199 0
1.03368 0.234368 0
0.68194 0.118884 0
0.759192 0.140762 0
0.835662 0.155626 0
0.438564 0.0604456 0
0.501653 0.0745498 0
0.566969 0.0864257 0
0.354136 0.0262794 0
0.397438 0.0438364 0
0.438564 0.0604456 0
0.114763 0.0147526 0
0.155005 0.0189706 0
0.186246 0.0225074 0
0 0 0
0 0 0
0 0 0
0.438564 0.0604456 0
0.501653 0.0745498 0
0.566969 0.0864257 0
0.186246 0.0225074 0
0.231417 0.0242313 0
0.276057 0.0254318 0
0 0 0
0 0 0
0 0 0
1.03368 0.234368 0
1.12244 0.243977 0
1.20777 0.239793 0
0.835662 0.155626 0
0.918687 0.161722 0
0.993636 0.159837 0
0.566969 0.0864257 0
0.64489 0.0956283 0
0.721577 0.100649 0
1.20777 0.239793 0
1.28643 0.219081 0
1.34752 0.183802 0
0.993636 0.159837 0
1.06412 0.149827 0
1.12328 0.13151 0
0.721577 0.100649 0
0.795988 0.0997804 0
0.860452 0.092408 0
0.566969 0.0864257 0
0.64489 0.0956283 0
0.721577 0.100649 0
0.276057 0.0254318 0
0.328267 0.026657 0
0.380086 0.0272595 0
0 0 0
0 0 0
0 0 0
0.721577 0.100649 0
0.795988 0.0997804 0
0.860452 0.092408 0
0.380086 0.0272595 0
0.434564 0.0277782 0
0.487111 0.027138 0
0 0 0
0 0 0
0 0 0
0.738677 1.34443 0
0.770992 1.29455 0
0.668971 1.52354 0
0.782138 1.26322 0
0.857675 1.28872 0
0.893641 1.49955 0
0.856899 1.13306 0
0.957727 1.22919 0
1.07258 1.4147 0
0.668971 1.52354 0
0.695863 1.61383 0
0.633495 1.37124 0
0.893641 1.49955 0
0.952229 1.60395 0
0.941513 1.44573 0
1.07258 1.4147 0
1.18937 1.58551 0
1.24285 1.49863 0
0.856899 1.13306 0
0.957727 1.22919 0
1.07258 1.4147 0
0.901062 0.990842 0
1.06223 1.12838 0
1.21166 1.24677 0
0.986169 0.817004 0
1.151 0.974656 0
1.31461 1.07276 0
1.07258 1.4147 0
1.18937 1.58551 0
1.24285 1.49863 0
1.21166 1.24677 0
1.37485 1.42701 0
1.47386 1.442 0
1.31461 1.07276 0
1.53462 1.2426 0
1.7256 1.30415 0
0.633495 1.37124 0
0.441587 0.93719 0
0.353199 0.399234 0
0.941513 1.44573 0
0.768808 0.974083 0
0.622408 0.428485 0
1.24285 1.49863 0
1.15651 1.08959 0
1.023 0.510254 0
0.353199 0.399234 0
0.207344 -0.0254255 0
-0.0462787 -0.463699 0
0.622408 0.428485 0
0.436959 0.0471121 0
0.246717 -0.385042 0
1.023 0.510254 0
0.750836 0.0445849 0
0.619011 -0.392435 0
1.24285 1.49863 0
1.15651 1.08959 0
1.023 0.510254 0
1.47386 1.442 0
1.4553 1.16547 0
1.41823 0.709922 0
1.7256 1.30415 0
1.74694 1.18682 0
1.708 0.860977 0
1.023 0.510254 0
0.750836 0.0445849 0
0.619011 -0.392435 0
1.41823 0.709922 0
1.14323 0.248572 0
0.930181 -0.196603 0
1.708 0.860977 0
1.42904 0.474101 0
1.12513 0.00747253 0
0.986169 0.817004 0
1.151 0.974656 0
1.31461 1.07276 0
1.0515 0.70948 0
1.19472 0.851929 0
1.33831 0.935305 0
1.05511 0.577411 0
1.2613 0.716128 0
1.38517 0.817314 0
1.31461 1.07276 0
1.53462 1.2426 0
1.7256 1.30415 0
1.33831 0.935305 0
1.51438 1.05824 0
1.78639 1.14482 0
1.38517 0.817314 0
1.51127 0.877768 0
1.65681 0.919337 0
1.05511 0.577411 0
1.2613 0.716128 0
1.38517 0.817314 0
1.01887 0.471995 0
1.22677 0.589986 0
1.36262 0.693 0
0.990772 0.364738 0
1.13525 0.453014 0
1.27573 0.538304 0
1.38517 0.817314 0
1.51127 0.877768 0
1.65681 0.919337 0
1.36262 0.693 0
1.54768 0.752308 0
1.6333 0.774255 0
1.27573 0.538304 0
1.48122 0.597621 0
1.66602 0.63697 0
1.7256 1.30415 0
1.74694 1.18682 0
1.708 0.860977 0
1.78639 1.14482 0
1.97495 1.1012 0
2.0437 0.896835 0
1.65681 0.919337 0
1.97653 0.914984 0
2.23489 0.808705 0
1.708 0.860977 0
1.42904 0.474101 0
1.12513 0.00747253 0
2.0437 0.896835 0
1.82704 0.583016 0
1.57928 0.267206 0
2.23489 0.808705 0
2.28235 0.601447 0
2.17564 0.356542 0
1.65681 0.919337 0
1.97653 0.914984 0
2.23489 0.808705 0
1.6333 0.774255 0
1.80189 0.75189 0
1.97182 0.701269 0
1.66602 0.63697 0
1.81709 0.598153 0
1.88224 0.516149 0
2.23489 0.808705 0
2.28235 0.601447 0
2.17564 0.356542 0
1.97182 0.701269 0
2.16909 0.598335 0
2.27688 0.429438 0
1.88224 0.516149 0
1.94838 0.427865 0
2.01106 0.326525 0
2.03925 -0.00120741 0
1.96103 0.13103 0
1.823 0.214361 0
1.83144 0.0559824 0
1.57226 0.219127 0
1.4069 0.304373 0
1.47231 0.33914 0
1.2712 0.398797 0
0.931108 0.437692 0
1.823 0.214361 0
1.73168 0.230359 0
1.59069 0.203631 0
1.4069 0.304373 0
1.18961 0.337894 0
1.10278 0.259149 0
0.931108 0.437692 0
0.71042 0.347438 0
0.527002 0.255227 0
1.47231 0.33914 0
1.2712 0.398797 0
0.931108 0.437692 0
1.03453 0.600741 0
0.777069 0.706492 0
0.462257 0.760093 0
0.884166 0.921304 0
0.574207 0.846542 0
0.33702 0.913008 0
0.931108 0.437692 0
0.71042 0.347438 0
0.527002 0.255227 0
0.462257 0.760093 0
0.29049 0.565985 0
0.0352506 0.39871 0
0.33702 0.913008 0
0.113261 0.800543 0
-0.0546817 0.506797 0
1.59069 0.203631 0
1.58109 0.123373 0
1.49136 0.0278168 0
1.10278 0.259149 0
1.07345 0.174981 0
1.1769 0.0234344 0
0.527002 0.255227 0
0.497906 -0.0257841 0
0.502097 -0.236194 0
1.49136 0.0278168 0
1.55166 -0.0321215 0
1.60703 -0.0853902 0
1.1769 0.0234344 0
1.32858 -0.124288 0
1.49284 -0.207421 0
0.502097 -0.236194 0
0.687129 -0.294502 0
0.948258 -0.364245 0
0.527002 0.255227 0
0.497906 -0.0257841 0
0.502097 -0.236194 0
0.0352506 0.39871 0
-0.081218 0.198698 0
-0.0521816 -0.326142 0
-0.0546817 0.506797 0
-0.301177 0.281945 0
-0.402328 -0.0981598 0
0.502097 -0.236194 0
0.687129 -0.294502 0
0.948258 -0.364245 0
-0.0521816 -0.326142 0
0.0197821 -0.593861 0
0.268949 -0.629314 0
-0.402328 -0.0981598 0
-0.484324 -0.545639 0
-0.32852 -0.779272 0
0.884166 0.921304 0
0.574207 0.846542 0
0.33702 0.913008 0
0.710467 1.19056 0
0.575906 1.02898 0
0.305239 1.14867 0
0.766995 1.36579 0
0.605321 1.15079 0
0.404685 1.40702 0
0.33702 0.913008 0
0.113261 0.800543 0
-0.0546817 0.506797 0
0.305239 1.14867 0
0.144597 1.06463 0
-0.0731512 0.72533 0
0.404685 1.40702 0
0.248549 1.31233 0
0.0790046 0.987305 0
0.766995 1.36579 0
0.605321 1.15079 0
0.404685 1.40702 0
0.733741 1.42585 0
0.667132 1.23285 0
0.505171 1.4986 0
0.738677 1.34443 0
0.770992 1.29455 0
0.668971 1.52354 0
0.404685 1.40702 0
0.248549 1.31233 0
0.0790046 0.987305 0
0.505171 1.4986 0
0.448138 1.46622 0
0.312205 1.15303 0
0.668971 1.52354 0
0.695863 1.61383 0
0.633495 1.37124 0
-0.0546817 0.506797 0
-0.301177 0.281945 0
-0.402328 -0.0981598 0
-0.0731512 0.72533 0
-0.313468 0.418503 0
-0.415579 -0.174528 0
0.0790046 0.987305 0
-0.167684 0.647481 0
-0.289593 0.0628094 0
-0.402328 -0.0981598 0
-0.484324 -0.545639 0
-0.32852 -0.779272 0
-0.415579 -0.174528 0
-0.528876 -0.61514 0
-0.563175 -0.861199 0
-0.289593 0.0628094 0
-0.392373 -0.49881 0
-0.508507 -0.800239 0
0.0790046 0.987305 0
-0.167684 0.647481 0
-0.289593 0.0628094 0
0.312205 1.15303 0
0.11118 0.748289 0
0.0107288 0.157109 0
0.633495 1.37124 0
0.441587 0.93719 0
0.353199 0.399234 0
-0.289593 0.0628094 0
-0.392373 -0.49881 0
-0.508507 -0.800239 0
0.0107288 0.157109 0
-0.132891 -0.323496 0
-0.334937 -0.688543 0
0.353199 0.399234 0
0.207344 -0.0254255 0
-0.0462787 -0.463699 0
0 0 0
0 0 0
0 0 0
0.461558 -0.00873286 0
0.484444 -0.00939959 0
0.508372 -0.00886023 0
0.841135 -0.0530426 0
0.883671 -0.0461852 0
0.915096 -0.0377121 0
0 0 0
0 0 0
0 0 0
0.508372 -0.00886023 0
0.527895 -0.00815822 0
0.546083 -0.0065834 0
0.915096 -0.0377121 0
0.937523 -0.0291545 0
0.95153 -0.0206686 0
0.841135 -0.0530426 0
0.883671 -0.0461852 0
0.915096 -0.0377121 0
1.16398 -0.0780197 0
1.19321 -0.0599576 0
1.21069 -0.0414922 0
1.38237 -0.106451 0
1.38632 -0.0688028 0
1.39226 -0.0341665 0
0.915096 -0.0377121 0
0.937523 -0.0291545 0
0.95153 -0.0206686 0
1.21069 -0.0414922 0
1.21483 -0.025044 0
1.21155 -0.0108491 0