# vtk DataFile Version 3.0
#This file was generated by the deal.II library on 2025/1/4 at 9:47:01
ASCII
DATASET UNSTRUCTURED_GRID

POINTS 8640 double
1.1 1.1 0
0.9625 1.09063 0
0.825 1.08125 0
1.0875 0.9625 0
0.951563 0.954297 0
0.815625 0.946094 0
1.075 0.825 0
0.940625 0.817969 0
0.80625 0.810937 0
0.825 1.08125 0
0.6875 1.07187 0
0.55 1.0625 0
0.815625 0.946094 0
0.679688 0.937891 0
0.54375 0.929688 0
0.80625 0.810937 0
0.671875 0.803906 0
0.5375 0.796875 0
1.075 0.825 0
0.940625 0.817969 0
0.80625 0.810937 0
1.0625 0.6875 0
0.929688 0.681641 0
0.796875 0.675781 0
1.05 0.55 0
0.91875 0.545313 0
0.7875 0.540625 0
0.80625 0.810937 0
0.671875 0.803906 0
0.5375 0.796875 0
0.796875 0.675781 0
0.664062 0.669922 0
0.53125 0.664062 0
0.7875 0.540625 0
0.65625 0.535937 0
0.525 0.53125 0
0.55 1.0625 0
0.4125 1.05313 0
0.275 1.04375 0
0.54375 0.929688 0
0.407813 0.921484 0
0.271875 0.913281 0
0.5375 0.796875 0
0.403125 0.789844 0
0.26875 0.782813 0
0.275 1.04375 0
0.1375 1.03437 0
0 1.025 0
0.271875 0.913281 0
0.135938 0.905078 0
0 0.896875 0
0.26875 0.782813 0
0.134375 0.775781 0
0 0.76875 0
0.5375 0.796875 0
0.403125 0.789844 0
0.26875 0.782813 0
0.53125 0.664062 0
0.398438 0.658203 0
0.265625 0.652344 0
0.525 0.53125 0
0.39375 0.526563 0
0.2625 0.521875 0
0.26875 0.782813 0
0.134375 0.775781 0
0 0.76875 0
0.265625 0.652344 0
0.132812 0.646484 0
0 0.640625 0
0.2625 0.521875 0
0.13125 0.517187 0
0 0.5125 0
1.05 0.55 0
0.91875 0.545313 0
0.7875 0.540625 0
1.0375 0.4125 0
0.907812 0.408984 0
0.778125 0.405469 0
1.025 0.275 0
0.896875 0.272656 0
0.76875 0.270313 0
0.7875 0.540625 0
0.65625 0.535937 0
0.525 0.53125 0
0.778125 0.405469 0
0.648438 0.401953 0
0.51875 0.398438 0
0.76875 0.270313 0
0.640625 0.267969 0
0.5125 0.265625 0
1.025 0.275 0
0.896875 0.272656 0
0.76875 0.270313 0
1.0125 0.1375 0
0.885937 0.136328 0
0.759375 0.135156 0
1 0 0
0.875 0 0
0.75 0 0
0.76875 0.270313 0
0.640625 0.267969 0
0.5125 0.265625 0
0.759375 0.135156 0
0.632812 0.133984 0
0.50625 0.132812 0
0.75 0 0
0.625 0 0
0.5 0 0
0.525 0.53125 0
0.39375 0.526563 0
0.2625 0.521875 0
0.51875 0.398438 0
0.389062 0.394922 0
0.259375 0.391406 0
0.5125 0.265625 0
0.384375 0.263281 0
0.25625 0.260937 0
0.2625 0.521875 0
0.13125 0.517187 0
0 0.5125 0
0.259375 0.391406 0
0.129688 0.387891 0
0 0.384375 0
0.25625 0.260937 0
0.128125 0.258594 0
0 0.25625 0
0.5125 0.265625 0
0.384375 0.263281 0
0.25625 0.260937 0
0.50625 0.132812 0
0.379687 0.131641 0
0.253125 0.130469 0
0.5 0 0
0.375 0 0
0.25 0 0
0.25625 0.260937 0
0.128125 0.258594 0
0 0.25625 0
0.253125 0.130469 0
0.126562 0.129297 0
0 0.128125 0
0.25 0 0
0.125 0 0
0 0 0
2 1 0
1.8875 1.0125 0
1.775 1.025 0
2 0.875 0
1.88594 0.885938 0
1.77188 0.896875 0
2 0.75 0
1.88437 0.759375 0
1.76875 0.76875 0
1.775 1.025 0
1.6625 1.0375 0
1.55 1.05 0
1.77188 0.896875 0
1.65781 0.907813 0
1.54375 0.91875 0
1.76875 0.76875 0
1.65313 0.778125 0
1.5375 0.7875 0
2 0.75 0
1.88437 0.759375 0
1.76875 0.76875 0
2 0.625 0
1.88281 0.632812 0
1.76562 0.640625 0
2 0.5 0
1.88125 0.50625 0
1.7625 0.5125 0
1.76875 0.76875 0
1.65313 0.778125 0
1.5375 0.7875 0
1.76562 0.640625 0
1.64844 0.648438 0
1.53125 0.65625 0
1.7625 0.5125 0
1.64375 0.51875 0
1.525 0.525 0
1.55 1.05 0
1.4375 1.0625 0
1.325 1.075 0
1.54375 0.91875 0
1.42969 0.929688 0
1.31563 0.940625 0
1.5375 0.7875 0
1.42188 0.796875 0
1.30625 0.80625 0
1.325 1.075 0
1.2125 1.0875 0
1.1 1.1 0
1.31563 0.940625 0
1.20156 0.951563 0
1.0875 0.9625 0
1.30625 0.80625 0
1.19063 0.815625 0
1.075 0.825 0
1.5375 0.7875 0
1.42188 0.796875 0
1.30625 0.80625 0
1.53125 0.65625 0
1.41406 0.664062 0
1.29688 0.671875 0
1.525 0.525 0
1.40625 0.53125 0
1.2875 0.5375 0
1.30625 0.80625 0
1.19063 0.815625 0
1.075 0.825 0
1.29688 0.671875 0
1.17969 0.679688 0
1.0625 0.6875 0
1.2875 0.5375 0
1.16875 0.54375 0
1.05 0.55 0
2 0.5 0
1.88125 0.50625 0
1.7625 0.5125 0
2 0.375 0
1.87969 0.379687 0
1.75938 0.384375 0
2 0.25 0
1.87813 0.253125 0
1.75625 0.25625 0
1.7625 0.5125 0
1.64375 0.51875 0
1.525 0.525 0
1.75938 0.384375 0
1.63906 0.389063 0
1.51875 0.39375 0
1.75625 0.25625 0
1.63438 0.259375 0
1.5125 0.2625 0
2 0.25 0
1.87813 0.253125 0
1.75625 0.25625 0
2 0.125 0
1.87656 0.126562 0
1.75313 0.128125 0
2 0 0
1.875 0 0
1.75 0 0
1.75625 0.25625 0
1.63438 0.259375 0
1.5125 0.2625 0
1.75313 0.128125 0
1.62969 0.129688 0
1.50625 0.13125 0
1.75 0 0
1.625 0 0
1.5 0 0
1.525 0.525 0
1.40625 0.53125 0
1.2875 0.5375 0
1.51875 0.39375 0
1.39844 0.398438 0
1.27813 0.403125 0
1.5125 0.2625 0
1.39062 0.265625 0
1.26875 0.26875 0
1.2875 0.5375 0
1.16875 0.54375 0
1.05 0.55 0
1.27813 0.403125 0
1.15781 0.407813 0
1.0375 0.4125 0
1.26875 0.26875 0
1.14688 0.271875 0
1.025 0.275 0
1.5125 0.2625 0
1.39062 0.265625 0
1.26875 0.26875 0
1.50625 0.13125 0
1.38281 0.132812 0
1.25937 0.134375 0
1.5 0 0
1.375 0 0
1.25 0 0
1.26875 0.26875 0
1.14688 0.271875 0
1.025 0.275 0
1.25937 0.134375 0
1.13594 0.135938 0
1.0125 0.1375 0
1.25 0 0
1.125 0 0
1 0 0
1 2 0
0.875 2.00625 0
0.75 2.0125 0
1.0125 1.8875 0
0.885938 1.8918 0
0.759375 1.89609 0
1.025 1.775 0
0.896875 1.77734 0
0.76875 1.77969 0
0.75 2.0125 0
0.625 2.01875 0
0.5 2.025 0
0.759375 1.89609 0
0.632812 1.90039 0
0.50625 1.90469 0
0.76875 1.77969 0
0.640625 1.78203 0
0.5125 1.78437 0
1.025 1.775 0
0.896875 1.77734 0
0.76875 1.77969 0
1.0375 1.6625 0
0.907813 1.66289 0
0.778125 1.66328 0
1.05 1.55 0
0.91875 1.54844 0
0.7875 1.54688 0
0.76875 1.77969 0
0.640625 1.78203 0
0.5125 1.78437 0
0.778125 1.66328 0
0.648438 1.66367 0
0.51875 1.66406 0
0.7875 1.54688 0
0.65625 1.54531 0
0.525 1.54375 0
0.5 2.025 0
0.375 2.03125 0
0.25 2.0375 0
0.50625 1.90469 0
0.379687 1.90898 0
0.253125 1.91328 0
0.5125 1.78437 0
0.384375 1.78672 0
0.25625 1.78906 0
0.25 2.0375 0
0.125 2.04375 0
0 2.05 0
0.253125 1.91328 0
0.126562 1.91758 0
0 1.92187 0
0.25625 1.78906 0
0.128125 1.79141 0
0 1.79375 0
0.5125 1.78437 0
0.384375 1.78672 0
0.25625 1.78906 0
0.51875 1.66406 0
0.389062 1.66445 0
0.259375 1.66484 0
0.525 1.54375 0
0.39375 1.54219 0
0.2625 1.54062 0
0.25625 1.78906 0
0.128125 1.79141 0
0 1.79375 0
0.259375 1.66484 0
0.129688 1.66523 0
0 1.66562 0
0.2625 1.54062 0
0.13125 1.53906 0
0 1.5375 0
1.05 1.55 0
0.91875 1.54844 0
0.7875 1.54688 0
1.0625 1.4375 0
0.929688 1.43398 0
0.796875 1.43047 0
1.075 1.325 0
0.940625 1.31953 0
0.80625 1.31406 0
0.7875 1.54688 0
0.65625 1.54531 0
0.525 1.54375 0
0.796875 1.43047 0
0.664062 1.42695 0
0.53125 1.42344 0
0.80625 1.31406 0
0.671875 1.30859 0
0.5375 1.30312 0
1.075 1.325 0
0.940625 1.31953 0
0.80625 1.31406 0
1.0875 1.2125 0
0.951563 1.20508 0
0.815625 1.19766 0
1.1 1.1 0
0.9625 1.09063 0
0.825 1.08125 0
0.80625 1.31406 0
0.671875 1.30859 0
0.5375 1.30312 0
0.815625 1.19766 0
0.679688 1.19023 0
0.54375 1.18281 0
0.825 1.08125 0
0.6875 1.07187 0
0.55 1.0625 0
0.525 1.54375 0
0.39375 1.54219 0
0.2625 1.54062 0
0.53125 1.42344 0
0.398438 1.41992 0
0.265625 1.41641 0
0.5375 1.30312 0
0.403125 1.29766 0
0.26875 1.29219 0
0.2625 1.54062 0
0.13125 1.53906 0
0 1.5375 0
0.265625 1.41641 0
0.132812 1.41289 0
0 1.40937 0
0.26875 1.29219 0
0.134375 1.28672 0
0 1.28125 0
0.5375 1.30312 0
0.403125 1.29766 0
0.26875 1.29219 0
0.54375 1.18281 0
0.407813 1.17539 0
0.271875 1.16797 0
0.55 1.0625 0
0.4125 1.05313 0
0.275 1.04375 0
0.26875 1.29219 0
0.134375 1.28672 0
0 1.28125 0
0.271875 1.16797 0
0.135938 1.16055 0
0 1.15312 0
0.275 1.04375 0
0.1375 1.03437 0
0 1.025 0
2.9 1.1 0
2.7875 1.0875 0
2.675 1.075 0
2.9125 0.9625 0
2.79844 0.951563 0
2.68438 0.940625 0
2.925 0.825 0
2.80938 0.815625 0
2.69375 0.80625 0
2.675 1.075 0
2.5625 1.0625 0
2.45 1.05 0
2.68438 0.940625 0
2.57031 0.929688 0
2.45625 0.91875 0
2.69375 0.80625 0
2.57812 0.796875 0
2.4625 0.7875 0
2.925 0.825 0
2.80938 0.815625 0
2.69375 0.80625 0
2.9375 0.6875 0
2.82031 0.679688 0
2.70312 0.671875 0
2.95 0.55 0
2.83125 0.54375 0
2.7125 0.5375 0
2.69375 0.80625 0
2.57812 0.796875 0
2.4625 0.7875 0
2.70312 0.671875 0
2.58594 0.664062 0
2.46875 0.65625 0
2.7125 0.5375 0
2.59375 0.53125 0
2.475 0.525 0
2.45 1.05 0
2.3375 1.0375 0
2.225 1.025 0
2.45625 0.91875 0
2.34219 0.907813 0
2.22813 0.896875 0
2.4625 0.7875 0
2.34688 0.778125 0
2.23125 0.76875 0
2.225 1.025 0
2.1125 1.0125 0
2 1 0
2.22813 0.896875 0
2.11406 0.885938 0
2 0.875 0
2.23125 0.76875 0
2.11563 0.759375 0
2 0.75 0
2.4625 0.7875 0
2.34688 0.778125 0
2.23125 0.76875 0
2.46875 0.65625 0
2.35156 0.648438 0
2.23438 0.640625 0
2.475 0.525 0
2.35625 0.51875 0
2.2375 0.5125 0
2.23125 0.76875 0
2.11563 0.759375 0
2 0.75 0
2.23438 0.640625 0
2.11719 0.632812 0
2 0.625 0
2.2375 0.5125 0
2.11875 0.50625 0
2 0.5 0
2.95 0.55 0
2.83125 0.54375 0
2.7125 0.5375 0
2.9625 0.4125 0
2.84219 0.407813 0
2.72188 0.403125 0
2.975 0.275 0
2.85313 0.271875 0
2.73125 0.26875 0
2.7125 0.5375 0
2.59375 0.53125 0
2.475 0.525 0
2.72188 0.403125 0
2.60156 0.398438 0
2.48125 0.39375 0
2.73125 0.26875 0
2.60938 0.265625 0
2.4875 0.2625 0
2.975 0.275 0
2.85313 0.271875 0
2.73125 0.26875 0
2.9875 0.1375 0
2.86406 0.135938 0
2.74063 0.134375 0
3 0 0
2.875 0 0
2.75 0 0
2.73125 0.26875 0
2.60938 0.265625 0
2.4875 0.2625 0
2.74063 0.134375 0
2.61719 0.132812 0
2.49375 0.13125 0
2.75 0 0
2.625 0 0
2.5 0 0
2.475 0.525 0
2.35625 0.51875 0
2.2375 0.5125 0
2.48125 0.39375 0
2.36094 0.389063 0
2.24062 0.384375 0
2.4875 0.2625 0
2.36562 0.259375 0
2.24375 0.25625 0
2.2375 0.5125 0
2.11875 0.50625 0
2 0.5 0
2.24062 0.384375 0
2.12031 0.379687 0
2 0.375 0
2.24375 0.25625 0
2.12188 0.253125 0
2 0.25 0
2.4875 0.2625 0
2.36562 0.259375 0
2.24375 0.25625 0
2.49375 0.13125 0
2.37031 0.129688 0
2.24688 0.128125 0
2.5 0 0
2.375 0 0
2.25 0 0
2.24375 0.25625 0
2.12188 0.253125 0
2 0.25 0
2.24688 0.128125 0
2.12344 0.126562 0
2 0.125 0
2.25 0 0
2.125 0 0
2 0 0
4 1 0
3.8625 1.0125 0
3.725 1.025 0
4 0.875 0
3.86406 0.885938 0
3.72813 0.896875 0
4 0.75 0
3.86563 0.759375 0
3.73125 0.76875 0
3.725 1.025 0
3.5875 1.0375 0
3.45 1.05 0
3.72813 0.896875 0
3.59219 0.907813 0
3.45625 0.91875 0
3.73125 0.76875 0
3.59688 0.778125 0
3.4625 0.7875 0
4 0.75 0
3.86563 0.759375 0
3.73125 0.76875 0
4 0.625 0
3.86719 0.632812 0
[...]
POINT_DATA 8640
VECTORS v double
1.23345 -0.188476 0
1.21368 -0.166471 0
1.18066 -0.1368 0
1.15073 -0.167395 0
1.12922 -0.145214 0
1.10017 -0.127926 0
1.06162 -0.141275 0
1.03737 -0.125131 0
1.00742 -0.110572 0
1.18066 -0.1368 0
1.17864 -0.120399 0
1.14781 -0.103521 0
1.10017 -0.127926 0
1.08705 -0.11157 0
1.0647 -0.0992748 0
1.00742 -0.110572 0
0.988865 -0.0980633 0
0.96435 -0.0870214 0
1.06162 -0.141275 0
1.03737 -0.125131 0
1.00742 -0.110572 0
0.943478 -0.106759 0
0.918319 -0.0974256 0
0.889534 -0.0889544 0
0.807575 -0.0834348 0
0.784593 -0.077143 0
0.758069 -0.0707856 0
1.00742 -0.110572 0
0.988865 -0.0980633 0
0.96435 -0.0870214 0
0.889534 -0.0889544 0
0.869592 -0.0810354 0
0.84539 -0.0734748 0
0.758069 -0.0707856 0
0.737561 -0.064805 0
0.715122 -0.0588517 0
1.14781 -0.103521 0
1.15305 -0.0997958 0
1.13174 -0.0803958 0
1.0647 -0.0992748 0
1.05372 -0.0941905 0
1.04272 -0.0802229 0
0.96435 -0.0870214 0
0.948386 -0.0826482 0
0.936205 -0.072607 0
1.13174 -0.0803958 0
1.13388 -0.0340181 0
1.125 0 0
1.04272 -0.0802229 0
1.02978 -0.0346085 0
1.02539 0 0
0.936205 -0.072607 0
0.920239 -0.0331552 0
0.914062 0 0
0.96435 -0.0870214 0
0.948386 -0.0826482 0
0.936205 -0.072607 0
0.84539 -0.0734748 0
0.827578 -0.0689953 0
0.813159 -0.0630888 0
0.715122 -0.0588517 0
0.695768 -0.0548521 0
0.679888 -0.051961 0
0.936205 -0.072607 0
0.920239 -0.0331552 0
0.914062 0 0
0.813159 -0.0630888 0
0.797184 -0.031242 0
0.791016 0 0
0.679888 -0.051961 0
0.662634 -0.027555 0
0.65625 0 0
0.807575 -0.0834348 0
0.784593 -0.077143 0
0.758069 -0.0707856 0
0.657399 -0.0572105 0
0.634763 -0.0537397 0
0.609787 -0.0499852 0
0.484961 -0.0361466 0
0.465429 -0.0341728 0
0.444142 -0.0319068 0
0.758069 -0.0707856 0
0.737561 -0.064805 0
0.715122 -0.0588517 0
0.609787 -0.0499852 0
0.589222 -0.0462101 0
0.568177 -0.042457 0
0.444142 -0.0319068 0
0.425311 -0.0295017 0
0.40718 -0.0273762 0
0.484961 -0.0361466 0
0.465429 -0.0341728 0
0.444142 -0.0319068 0
0.309965 -0.012615 0
0.289644 -0.0117544 0
0.269427 -0.0110255 0
0 0 0
0 0 0
0 0 0
0.444142 -0.0319068 0
0.425311 -0.0295017 0
0.40718 -0.0273762 0
0.269427 -0.0110255 0
0.250208 -0.0100568 0
0.233249 -0.00952497 0
0 0 0
0 0 0
0 0 0
0.715122 -0.0588517 0
0.695768 -0.0548521 0
0.679888 -0.051961 0
0.568177 -0.042457 0
0.548862 -0.0389116 0
0.532965 -0.037739 0
0.40718 -0.0273762 0
0.389299 -0.0246547 0
0.374387 -0.0241271 0
0.679888 -0.051961 0
0.662634 -0.027555 0
0.65625 0 0
0.532965 -0.037739 0
0.516117 -0.0213366 0
0.509766 0 0
0.374387 -0.0241271 0
0.358457 -0.015597 0
0.351562 0 0
0.40718 -0.0273762 0
0.389299 -0.0246547 0
0.374387 -0.0241271 0
0.233249 -0.00952497 0
0.215833 -0.00833027 0
0.202192 -0.00819713 0
0 0 0
0 0 0
0 0 0
0.374387 -0.0241271 0
0.358457 -0.015597 0
0.351562 0 0
0.202192 -0.00819713 0
0.187488 -0.00490478 0
0.181641 0 0
0 0 0
0 0 0
0 0 0
1.58463 -0.0339862 0
1.56968 -0.121743 0
1.52262 -0.184769 0
1.38998 -0.0195419 0
1.37903 -0.0797749 0
1.35561 -0.130258 0
1.23502 -0.00690999 0
1.23222 -0.0561905 0
1.2233 -0.0978417 0
1.52262 -0.184769 0
1.463 -0.222791 0
1.39811 -0.245143 0
1.35561 -0.130258 0
1.31325 -0.170331 0
1.27404 -0.189992 0
1.2233 -0.0978417 0
1.19848 -0.130759 0
1.16686 -0.14885 0
1.23502 -0.00690999 0
1.23222 -0.0561905 0
1.2233 -0.0978417 0
1.06845 -0.00885029 0
1.0698 -0.0371046 0
1.06483 -0.0626168 0
0.90828 -0.000951047 0
0.907822 -0.0231588 0
0.901887 -0.0431983 0
1.2233 -0.0978417 0
1.19848 -0.130759 0
1.16686 -0.14885 0
1.06483 -0.0626168 0
1.04873 -0.0838898 0
1.02713 -0.0988394 0
0.901887 -0.0431983 0
0.891031 -0.0607672 0
0.873631 -0.0733623 0
1.39811 -0.245143 0
1.34028 -0.2437 0
1.29742 -0.233134 0
1.27404 -0.189992 0
1.23546 -0.194982 0
1.20363 -0.192261 0
1.16686 -0.14885 0
1.13903 -0.156136 0
1.10782 -0.155657 0
1.29742 -0.233134 0
1.26342 -0.218446 0
1.23345 -0.188476 0
1.20363 -0.192261 0
1.17725 -0.181024 0
1.15073 -0.167395 0
1.10782 -0.155657 0
1.08772 -0.15047 0
1.06162 -0.141275 0
1.16686 -0.14885 0
1.13903 -0.156136 0
1.10782 -0.155657 0
1.02713 -0.0988394 0
1.00681 -0.108004 0
0.981529 -0.111609 0
0.873631 -0.0733623 0
0.860524 -0.081421 0
0.840806 -0.0854863 0
1.10782 -0.155657 0
1.08772 -0.15047 0
1.06162 -0.141275 0
0.981529 -0.111609 0
0.964904 -0.11055 0
0.943478 -0.106759 0
0.840806 -0.0854863 0
0.826673 -0.0857991 0
0.807575 -0.0834348 0
0.90828 -0.000951047 0
0.907822 -0.0231588 0
0.901887 -0.0431983 0
0.743695 -0.00378875 0
0.746247 -0.0176051 0
0.741898 -0.0303496 0
0.570693 0.000429199 0
0.570915 -0.00820255 0
0.564078 -0.0162853 0
0.901887 -0.0431983 0
0.891031 -0.0607672 0
0.873631 -0.0733623 0
0.741898 -0.0303496 0
0.734597 -0.0412362 0
0.719154 -0.0492795 0
0.564078 -0.0162853 0
0.557113 -0.023506 0
0.542546 -0.0291011 0
0.570693 0.000429199 0
0.570915 -0.00820255 0
0.564078 -0.0162853 0
0.402176 -0.000916106 0
0.403801 -0.00403147 0
0.396519 -0.00687806 0
0 0 0
0 0 0
0 0 0
0.564078 -0.0162853 0
0.557113 -0.023506 0
0.542546 -0.0291011 0
0.396519 -0.00687806 0
0.389894 -0.00922619 0
0.374549 -0.0108569 0
0 0 0
0 0 0
0 0 0
0.873631 -0.0733623 0
0.860524 -0.081421 0
0.840806 -0.0854863 0
0.719154 -0.0492795 0
0.707374 -0.0542881 0
0.689056 -0.0571587 0
0.542546 -0.0291011 0
0.531409 -0.0328907 0
0.514599 -0.0352389 0
0.840806 -0.0854863 0
0.826673 -0.0857991 0
0.807575 -0.0834348 0
0.689056 -0.0571587 0
0.675227 -0.0581587 0
0.657399 -0.0572105 0
0.514599 -0.0352389 0
0.501481 -0.0364479 0
0.484961 -0.0361466 0
0.542546 -0.0291011 0
0.531409 -0.0328907 0
0.514599 -0.0352389 0
0.374549 -0.0108569 0
0.362128 -0.0121038 0
0.343862 -0.0125782 0
0 0 0
0 0 0
0 0 0
0.514599 -0.0352389 0
0.501481 -0.0364479 0
0.484961 -0.0361466 0
0.343862 -0.0125782 0
0.32835 -0.013093 0
0.309965 -0.012615 0
0 0 0
0 0 0
0 0 0
1.24928 0.000767264 0
1.3123 0.00404046 0
1.36176 0.00603141 0
1.26172 -0.0669483 0
1.316 -0.047453 0
1.3631 -0.0327955 0
1.2563 -0.119956 0
1.30509 -0.0886668 0
1.34959 -0.0662508 0
1.36176 0.00603141 0
1.40272 0.0072115 0
1.43434 0.00823916 0
1.3631 -0.0327955 0
1.40036 -0.0248786 0
1.43211 -0.0193224 0
1.34959 -0.0662508 0
1.38376 -0.0524345 0
1.41394 -0.0436625 0
1.2563 -0.119956 0
1.30509 -0.0886668 0
1.34959 -0.0662508 0
1.27684 -0.182505 0
1.31184 -0.136533 0
1.3453 -0.10341 0
1.28963 -0.200967 0
1.30864 -0.155137 0
1.32971 -0.120369 0
1.34959 -0.0662508 0
1.38376 -0.0524345 0
1.41394 -0.0436625 0
1.3453 -0.10341 0
1.37179 -0.0830388 0
1.39598 -0.0698752 0
1.32971 -0.120369 0
1.34816 -0.0986536 0
1.36506 -0.0838708 0
1.43434 0.00823916 0
1.4634 0.00834117 0
1.48287 0.00594042 0
1.43211 -0.0193224 0
1.45903 -0.0160379 0
1.47831 -0.0103425 0
1.41394 -0.0436625 0
1.4396 -0.0377295 0
1.45933 -0.0247374 0
1.48287 0.00594042 0
1.49777 0.00237735 0
1.5 0 0
1.47831 -0.0103425 0
1.49117 -0.0038791 0
1.49414 0 0
1.45933 -0.0247374 0
1.47301 -0.00966691 0
1.47656 0 0
1.41394 -0.0436625 0
1.4396 -0.0377295 0
1.45933 -0.0247374 0
1.39598 -0.0698752 0
1.41763 -0.0619249 0
1.43237 -0.0418983 0
1.36506 -0.0838708 0
1.38276 -0.0756853 0
1.39239 -0.052186 0
1.45933 -0.0247374 0
1.47301 -0.00966691 0
1.47656 0 0
1.43237 -0.0418983 0
1.44505 -0.017357 0
1.44727 0 0
1.39239 -0.052186 0
1.40497 -0.0211419 0
1.40625 0 0
1.28963 -0.200967 0
1.30864 -0.155137 0
1.32971 -0.120369 0
1.29043 -0.227119 0
1.30033 -0.181071 0
1.30781 -0.142293 0
1.29146 -0.221056 0
1.2858 -0.180363 0
1.27932 -0.144445 0
1.32971 -0.120369 0
1.34816 -0.0986536 0
1.36506 -0.0838708 0
1.30781 -0.142293 0
1.32007 -0.118799 0
1.32657 -0.101028 0
1.27932 -0.144445 0
1.28314 -0.122048 0
1.27939 -0.104303 0
1.29146 -0.221056 0
1.2858 -0.180363 0
1.27932 -0.144445 0
1.26346 -0.209222 0
1.25347 -0.182577 0
1.23389 -0.146266 0
1.23345 -0.188476 0
1.21368 -0.166471 0
1.18066 -0.1368 0
1.27932 -0.144445 0
1.28314 -0.122048 0
1.27939 -0.104303 0
1.23389 -0.146266 0
1.23527 -0.128197 0
1.21669 -0.108185 0
1.18066 -0.1368 0
1.17864 -0.120399 0
1.14781 -0.103521 0
1.36506 -0.0838708 0
1.38276 -0.0756853 0
1.39239 -0.052186 0
1.32657 -0.101028 0
1.34094 -0.0930024 0
1.3423 -0.0665086 0
1.27939 -0.104303 0
1.28859 -0.0977144 0
1.28216 -0.0720031 0
1.39239 -0.052186 0
1.40497 -0.0211419 0
1.40625 0 0
1.3423 -0.0665086 0
1.35441 -0.0282468 0
1.35352 0 0
1.28216 -0.0720031 0
1.29171 -0.0295632 0
1.28906 0 0
1.27939 -0.104303 0
1.28859 -0.0977144 0
1.28216 -0.0720031 0
1.21669 -0.108185 0
1.2262 -0.105076 0
1.20996 -0.0800945 0
1.14781 -0.103521 0
1.15305 -0.0997958 0
1.13174 -0.0803958 0
1.28216 -0.0720031 0
1.29171 -0.0295632 0
1.28906 0 0
1.20996 -0.0800945 0
1.22023 -0.0338077 0
1.21289 0 0
1.13174 -0.0803958 0
1.13388 -0.0340181 0
1.125 0 0
1.25382 0.211327 0
1.27938 0.239766 0
1.31972 0.255049 0
1.1795 0.172977 0
1.20464 0.187736 0
1.23871 0.202555 0
1.0733 0.137812 0
1.09243 0.148732 0
1.11335 0.154921 0
1.31972 0.255049 0
1.38659 0.272014 0
1.46145 0.257044 0
1.23871 0.202555 0
1.28621 0.205078 0
1.33408 0.189228 0
1.11335 0.154921 0
1.1456 0.157776 0
1.17936 0.146967 0
1.0733 0.137812 0
1.09243 0.148732 0
1.11335 0.154921 0
0.957008 0.105725 0
0.974514 0.110185 0
0.994548 0.111085 0
0.822106 0.0795776 0
0.838043 0.0831129 0
0.856284 0.0839383 0
1.11335 0.154921 0
1.1456 0.157776 0
1.17936 0.146967 0
0.994548 0.111085 0
1.01702 0.106502 0
1.04129 0.0940853 0
0.856284 0.0839383 0
0.875112 0.0815276 0
0.895009 0.0735309 0
1.46145 0.257044 0
1.52474 0.212858 0
1.57406 0.146166 0
1.33408 0.189228 0
1.37196 0.158075 0
1.40566 0.108062 0
1.17936 0.146967 0
1.2051 0.123293 0
1.22879 0.0887539 0
1.57406 0.146166 0
1.59332 0.0593784 0
1.58463 -0.0339862 0
1.40566 0.108062 0
1.40643 0.0451875 0
1.38998 -0.0195419 0
1.22879 0.0887539 0
1.23493 0.0429025 0
1.23502 -0.00690999 0
1.17936 0.146967 0
1.2051 0.123293 0
1.22879 0.0887539 0
1.04129 0.0940853 0
1.05649 0.0740175 0
1.07167 0.0498928 0
0.895009 0.0735309 0
0.906314 0.0592244 0
0.915246 0.0419896 0
1.22879 0.0887539 0
1.23493 0.0429025 0
1.23502 -0.00690999 0
1.07167 0.0498928 0
1.07357 0.0207012 0
1.06845 -0.00885029 0
0.915246 0.0419896 0
0.914422 0.0208933 0
0.90828 -0.000951047 0
0.822106 0.0795776 0
0.838043 0.0831129 0
0.856284 0.0839383 0
0.667596 0.0545098 0
0.681476 0.055763 0
0.697516 0.0552436 0
0.496276 0.0335267 0
0.510061 0.0345394 0
0.525782 0.0345746 0
0.856284 0.0839383 0
0.875112 0.0815276 0
0.895009 0.0735309 0
0.697516 0.0552436 0
0.712099 0.0518698 0
0.728055 0.0456568 0
0.525782 0.0345746 0
0.539732 0.0330171 0
0.55383 0.0297311 0
0.496276 0.0335267 0
0.510061 0.0345394 0
0.525782 0.0345746 0
0.320588 0.0119146 0
0.335712 0.0121678 0
0.352418 0.0119826 0
0 0 0
0 0 0
0 0 0
0.525782 0.0345746 0
0.539732 0.0330171 0
0.55383 0.0297311 0
0.352418 0.0119826 0
0.367322 0.0111792 0
0.381934 0.0097097 0
0 0 0
0 0 0
0 0 0
0.895009 0.0735309 0
0.906314 0.0592244 0
0.915246 0.0419896 0
0.728055 0.0456568 0
0.738286 0.0356753 0
0.746507 0.0240171 0
0.55383 0.0297311 0
0.563572 0.0240596 0
0.570557 0.0171552 0
0.915246 0.0419896 0
0.914422 0.0208933 0
0.90828 -0.000951047 0
0.746507 0.0240171 0
0.748097 0.010453 0
0.743695 -0.00378875 0
0.570557 0.0171552 0
0.573022 0.00905445 0
0.570693 0.000429199 0
0.55383 0.0297311 0
0.563572 0.0240596 0
0.570557 0.0171552 0
0.381934 0.0097097 0
0.393163 0.00790874 0
0.400562 0.00528089 0
0 0 0
0 0 0
0 0 0
0.570557 0.0171552 0
0.573022 0.00905445 0
0.570693 0.000429199 0
0.400562 0.00528089 0
0.404977 0.0024312 0
0.402176 -0.000916106 0
0 0 0
0 0 0
0 0 0
1.10859 0.0325119 0
1.11885 0.0429166 0
1.1308 0.0528398 0
1.0162 0.0315928 0
1.02774 0.0409074 0
1.04113 0.0504416 0
0.911288 0.0279723 0
0.92315 0.0358948 0
0.937008 0.0439573 0
1.1308 0.0528398 0
1.14106 0.0664015 0
1.15521 0.0834524 0
1.04113 0.0504416 0
1.05422 0.0636822 0
1.07029 0.0792404 0
0.937008 0.0439573 0
0.951573 0.0544683 0
0.966801 0.0664778 0
0.911288 0.0279723 0
0.92315 0.0358948 0
0.937008 0.0439573 0
0.794668 0.0247884 0
0.807403 0.0314382 0
0.821451 0.0383518 0
0.665642 0.0195272 0
0.678764 0.0247036 0
0.692037 0.030004 0
0.937008 0.0439573 0
0.951573 0.0544683 0
0.966801 0.0664778 0
0.821451 0.0383518 0
0.837453 0.0472109 0
0.853946 0.0569124 0
0.692037 0.030004 0
0.708161 0.0365741 0
0.724221 0.0438152 0
1.15521 0.0834524 0
1.16995 0.104561 0
1.17912 0.131098 0
1.07029 0.0792404 0
1.09016 0.0975192 0
1.10777 0.118627 0
0.966801 0.0664778 0
0.986764 0.080798 0
1.0082 0.0970236 0
1.17912 0.131098 0
1.21246 0.167801 0
1.25382 0.211327 0
1.10777 0.118627 0
1.13846 0.1468 0
1.1795 0.172977 0
1.0082 0.0970236 0
1.03762 0.117257 0
1.0733 0.137812 0
0.966801 0.0664778 0
0.986764 0.080798 0
1.0082 0.0970236 0
0.853946 0.0569124 0
0.875398 0.0684539 0
0.897669 0.0804974 0
0.724221 0.0438152 0
0.744821 0.0523327 0
0.767078 0.0611837 0
1.0082 0.0970236 0
1.03762 0.117257 0
1.0733 0.137812 0
0.897669 0.0804974 0
0.924814 0.0938662 0
0.957008 0.105725 0
0.767078 0.0611837 0
0.792327 0.0707904 0
0.822106 0.0795776 0
0.665642 0.0195272 0
0.678764 0.0247036 0
0.692037 0.030004 0
0.523789 0.0148966 0
0.536857 0.0187937 0
0.54879 0.022729 0
0.369613 0.00886841 0
0.382213 0.0111932 0
0.392361 0.0136092 0
0.692037 0.030004 0
0.708161 0.0365741 0
0.724221 0.0438152 0
0.54879 0.022729 0
0.564278 0.0273638 0
0.579626 0.0324243 0
0.392361 0.0136092 0
0.406198 0.0163752 0
0.420432 0.0194478 0
0.369613 0.00886841 0
0.382213 0.0111932 0
0.392361 0.0136092 0
0.203848 0.00328058 0
0.215503 0.00415902 0
0.224736 0.00513032 0
0 0 0
0 0 0
0 0 0
0.392361 0.0136092 0
0.406198 0.0163752 0
0.420432 0.0194478 0
0.224736 0.00513032 0
0.236372 0.00604622 0
0.249805 0.00715324 0
0 0 0
0 0 0
0 0 0
0.724221 0.0438152 0
0.744821 0.0523327 0
0.767078 0.0611837 0
0.579626 0.0324243 0
0.598416 0.03833 0
0.619307 0.0440778 0
0.420432 0.0194478 0
0.436756 0.022986 0
0.455866 0.0267084 0
0.767078 0.0611837 0
0.792327 0.0707904 0
0.822106 0.0795776 0
0.619307 0.0440778 0
0.641438 0.0495073 0
0.667596 0.0545098 0
0.455866 0.0267084 0
0.474724 0.0301893 0
0.496276 0.0335267 0
0.420432 0.0194478 0
0.436756 0.022986 0
0.455866 0.0267084 0
0.249805 0.00715324 0
0.264137 0.00822718 0
0.281981 0.00957904 0
0 0 0
0 0 0
0 0 0
0.455866 0.0267084 0
0.474724 0.0301893 0
0.496276 0.0335267 0
0.281981 0.00957904 0
0.299524 0.010546 0
0.320588 0.0119146 0
0 0 0
0 0 0
0 0 0
1.46842 -0.00127519 0
1.45304 -0.00128151 0
1.42847 -0.00123697 0
1.45636 0.00811294 0
1.44393 0.00488958 0
1.42456 0.00905494 0
1.43545 0.0150172 0
1.42691 0.0175687 0
1.41488 0.0240403 0
1.42847 -0.00123697 0
1.42734 -0.00114222 0
1.41427 -0.00105206 0
1.42456 0.00905494 0
1.41817 0.0213879 0
1.3997 0.0237657 0
1.41488 0.0240403 0
1.40412 0.0332709 0
1.38109 0.0413788 0
1.43545 0.0150172 0
1.42691 0.0175687 0
1.41488 0.0240403 0
1.40595 0.0211407 0
1.40025 0.0273449 0
1.38833 0.0359373 0
1.36756 0.0269282 0
1.36583 0.0333853 0
1.35496 0.0434487 0
1.41488 0.0240403 0
1.40412 0.0332709 0
1.38109 0.0413788 0
1.38833 0.0359373 0
1.38122 0.0431595 0
1.36852 0.0535313 0
1.35496 0.0434487 0
1.35201 0.0586356 0
1.35259 0.0722988 0
1.41427 -0.00105206 0
1.3771 -0.000908149 0
1.33052 -0.000622393 0
1.3997 0.0237657 0
1.37184 0.0185658 0
1.33154 0.0330208 0
1.38109 0.0413788 0
1.36677 0.0570905 0
1.33618 0.0764837 0
1.33052 -0.000622393 0
1.29796 -0.000137771 0
1.23959 0.00046116 0
1.33154 0.0330208 0
1.28665 0.0633388 0
1.23307 0.0681945 0
1.33618 0.0764837 0
1.2786 0.103293 0
1.23756 0.156317 0
1.38109 0.0413788 0
1.36677 0.0570905 0
1.33618 0.0764837 0
1.36852 0.0535313 0
1.34756 0.0837776 0
1.31607 0.110041 0
1.35259 0.0722988 0
1.33145 0.0945023 0
1.30143 0.131895 0
1.33618 0.0764837 0
1.2786 0.103293 0
1.23756 0.156317 0
1.31607 0.110041 0
1.29694 0.129857 0
1.26912 0.190167 0
1.30143 0.131895 0
1.30047 0.185931 0
1.28815 0.231735 0
1.36756 0.0269282 0
1.36583 0.0333853 0
1.35496 0.0434487 0
1.31719 0.0312786 0
1.31986 0.0373232 0
1.31622 0.0476633 0
1.25717 0.0329933 0
1.26438 0.042921 0
1.269 0.0528511 0
1.35496 0.0434487 0
1.35201 0.0586356 0
1.35259 0.0722988 0
1.31622 0.0476633 0
1.31294 0.0683974 0
1.31623 0.0853596 0
1.269 0.0528511 0
1.2667 0.0696628 0
1.27112 0.0899909 0
1.25717 0.0329933 0
1.26438 0.042921 0
1.269 0.0528511 0
1.18822 0.0331666 0
1.19635 0.0459195 0
1.20511 0.0560183 0
1.10859 0.0325119 0
1.11885 0.0429166 0
1.1308 0.0528398 0
1.269 0.0528511 0
1.2667 0.0696628 0
1.27112 0.0899909 0
1.20511 0.0560183 0
1.20823 0.0688369 0
1.21527 0.0885236 0
1.1308 0.0528398 0
1.14106 0.0664015 0
1.15521 0.0834524 0
1.35259 0.0722988 0
1.33145 0.0945023 0
1.30143 0.131895 0
1.31623 0.0853596 0
1.30649 0.100708 0
1.28806 0.136336 0
1.27112 0.0899909 0
1.27186 0.114193 0
1.27628 0.144596 0
1.30143 0.131895 0
1.30047 0.185931 0
1.28815 0.231735 0
1.28806 0.136336 0
1.289 0.196898 0
1.28313 0.248815 0
1.27628 0.144596 0
1.29535 0.189684 0
1.28291 0.253638 0
1.27112 0.0899909 0
1.27186 0.114193 0
1.27628 0.144596 0
1.21527 0.0885236 0
1.22313 0.116709 0
1.23431 0.147345 0
1.15521 0.0834524 0
1.16995 0.104561 0
1.17912 0.131098 0
1.27628 0.144596 0
1.29535 0.189684 0
1.28291 0.253638 0
1.23431 0.147345 0
1.25259 0.180854 0
1.25992 0.229562 0
1.17912 0.131098 0
1.21246 0.167801 0
1.25382 0.211327 0
1.18044 -0.0360028 0
1.18975 -0.0465745 0
1.2001 -0.0565642 0
1.25069 -0.0364884 0
1.25805 -0.0495471 0
1.26502 -0.0596183 0
1.31082 -0.0362746 0
1.31757 -0.046327 0
1.32034 -0.0563308 0
1.2001 -0.0565642 0
1.20936 -0.0704306 0
1.22331 -0.0873923 0
1.26502 -0.0596183 0
1.26732 -0.0725986 0
1.27359 -0.0923806 0
1.32034 -0.0563308 0
1.31789 -0.073434 0
1.32183 -0.0939158 0
1.31082 -0.0362746 0
1.31757 -0.046327 0
1.32034 -0.0563308 0
1.3619 -0.034331 0
1.36395 -0.0401861 0
1.35877 -0.0507174 0
1.40338 -0.0297924 0
1.40093 -0.0362373 0
1.38884 -0.0464684 0
1.32034 -0.0563308 0
1.31789 -0.073434 0
1.32183 -0.0939158 0
1.35877 -0.0507174 0
1.35545 -0.071705 0
1.35841 -0.0884172 0
1.38884 -0.0464684 0
1.38576 -0.0615457 0
1.38598 -0.0749601 0
1.22331 -0.0873923 0
1.23568 -0.108248 0
1.24255 -0.135073 0
1.27359 -0.0923806 0
1.2794 -0.121007 0
1.28942 -0.152007 0
1.32183 -0.0939158 0
1.32057 -0.118309 0
1.32563 -0.148945 0
1.24255 -0.135073 0
1.27624 -0.171554 0
1.31437 -0.214108 0
1.28942 -0.152007 0
1.3056 -0.184165 0
1.3114 -0.233164 0
1.32563 -0.148945 0
1.34267 -0.194036 0
1.32621 -0.258279 0
1.32183 -0.0939158 0
1.32057 -0.118309 0
1.32563 -0.148945 0
1.35841 -0.0884172 0
1.34683 -0.103356 0
1.32744 -0.139087 0
1.38598 -0.0749601 0
1.36348 -0.0971444 0
1.33221 -0.134783 0
1.32563 -0.148945 0
1.34267 -0.194036 0
1.32621 -0.258279 0
1.32744 -0.139087 0
1.3278 -0.200119 0
1.31959 -0.25248 0
1.33221 -0.134783 0
1.33024 -0.188488 0
1.31718 -0.233219 0
1.40338 -0.0297924 0
1.40093 -0.0362373 0
1.38884 -0.0464684 0
1.43281 -0.0238611 0
1.42654 -0.030204 0
1.41393 -0.0388877 0
1.45333 -0.0176335 0
1.44435 -0.020255 0
1.43214 -0.0267355 0
1.38884 -0.0464684 0
1.38576 -0.0615457 0
1.38598 -0.0749601 0
1.41393 -0.0388877 0
1.40646 -0.0456352 0
1.39349 -0.0558783 0
1.43214 -0.0267355 0
1.42084 -0.0356305 0
1.39753 -0.0435937 0
1.45333 -0.0176335 0
1.44435 -0.020255 0
1.43214 -0.0267355 0
1.4653 -0.0106978 0
1.45263 -0.00753132 0
1.43326 -0.0116492 0
1.46842 -0.00127519 0
1.45304 -0.00128151 0
1.42847 -0.00123697 0
1.43214 -0.0267355 0
1.42084 -0.0356305 0
1.39753 -0.0435937 0
1.43326 -0.0116492 0
1.4266 -0.0237955 0
1.40784 -0.0260199 0
1.42847 -0.00123697 0
1.42734 -0.00114222 0
1.41427 -0.00105206 0
1.38598 -0.0749601 0
1.36348 -0.0971444 0
1.33221 -0.134783 0
1.39349 -0.0558783 0
1.37174 -0.0864552 0
1.33896 -0.112307 0
1.39753 -0.0435937 0
1.38305 -0.0593505 0
1.35072 -0.0781773 0
1.33221 -0.134783 0
1.33024 -0.188488 0
1.31718 -0.233219 0
1.33896 -0.112307 0
1.31989 -0.131524 0
1.2897 -0.191548 0
1.35072 -0.0781773 0
1.29294 -0.104172 0
1.25194 -0.157052 0
1.39753 -0.0435937 0
1.38305 -0.0593505 0
1.35072 -0.0781773 0
1.40784 -0.0260199 0
1.37998 -0.0206547 0
1.33921 -0.0347143 0
1.41427 -0.00105206 0
1.3771 -0.000908149 0
1.33052 -0.000622393 0
1.35072 -0.0781773 0
1.29294 -0.104172 0
1.25194 -0.157052 0
1.33921 -0.0347143 0
1.29386 -0.0641128 0
1.24032 -0.0679561 0
1.33052 -0.000622393 0
1.29796 -0.000137771 0
1.23959 0.00046116 0
0 0 0
0 0 0
0 0 0
0.225325 -0.00375649 0
0.237291 -0.00465073 0
0.246319 -0.00561009 0