# vtk DataFile Version 3.0
#This file was generated by the deal.II library on 2025/1/8 at 0:40:43
ASCII
DATASET UNSTRUCTURED_GRID

POINTS 34560 double
1.1 1.1 0
1.03125 1.09531 0
0.9625 1.09063 0
1.09375 1.03125 0
1.02539 1.02686 0
0.957031 1.02246 0
1.0875 0.9625 0
1.01953 0.958398 0
0.951563 0.954297 0
0.9625 1.09063 0
0.89375 1.08594 0
0.825 1.08125 0
0.957031 1.02246 0
0.888672 1.01807 0
0.820312 1.01367 0
0.951563 0.954297 0
0.883594 0.950195 0
0.815625 0.946094 0
1.0875 0.9625 0
1.01953 0.958398 0
0.951563 0.954297 0
1.08125 0.89375 0
1.01367 0.889941 0
0.946094 0.886133 0
1.075 0.825 0
1.00781 0.821484 0
0.940625 0.817969 0
0.951563 0.954297 0
0.883594 0.950195 0
0.815625 0.946094 0
0.946094 0.886133 0
0.878516 0.882324 0
0.810938 0.878516 0
0.940625 0.817969 0
0.873438 0.814453 0
0.80625 0.810937 0
0.825 1.08125 0
0.75625 1.07656 0
0.6875 1.07187 0
0.820312 1.01367 0
0.751953 1.00928 0
0.683594 1.00488 0
0.815625 0.946094 0
0.747656 0.941992 0
0.679688 0.937891 0
0.6875 1.07187 0
0.61875 1.06719 0
0.55 1.0625 0
0.683594 1.00488 0
0.615234 1.00049 0
0.546875 0.996094 0
0.679688 0.937891 0
0.611719 0.933789 0
0.54375 0.929688 0
0.815625 0.946094 0
0.747656 0.941992 0
0.679688 0.937891 0
0.810938 0.878516 0
0.743359 0.874707 0
0.675781 0.870898 0
0.80625 0.810937 0
0.739063 0.807422 0
0.671875 0.803906 0
0.679688 0.937891 0
0.611719 0.933789 0
0.54375 0.929688 0
0.675781 0.870898 0
0.608203 0.86709 0
0.540625 0.863281 0
0.671875 0.803906 0
0.604688 0.800391 0
0.5375 0.796875 0
1.075 0.825 0
1.00781 0.821484 0
0.940625 0.817969 0
1.06875 0.75625 0
1.00195 0.753027 0
0.935156 0.749805 0
1.0625 0.6875 0
0.996094 0.68457 0
0.929688 0.681641 0
0.940625 0.817969 0
0.873438 0.814453 0
0.80625 0.810937 0
0.935156 0.749805 0
0.868359 0.746582 0
0.801563 0.743359 0
0.929688 0.681641 0
0.863281 0.678711 0
0.796875 0.675781 0
1.0625 0.6875 0
0.996094 0.68457 0
0.929688 0.681641 0
1.05625 0.61875 0
0.990234 0.616113 0
0.924219 0.613477 0
1.05 0.55 0
0.984375 0.547656 0
0.91875 0.545313 0
0.929688 0.681641 0
0.863281 0.678711 0
0.796875 0.675781 0
0.924219 0.613477 0
0.858203 0.61084 0
0.792188 0.608203 0
0.91875 0.545313 0
0.853125 0.542969 0
0.7875 0.540625 0
0.80625 0.810937 0
0.739063 0.807422 0
0.671875 0.803906 0
0.801563 0.743359 0
0.734766 0.740137 0
0.667969 0.736914 0
0.796875 0.675781 0
0.730469 0.672852 0
0.664062 0.669922 0
0.671875 0.803906 0
0.604688 0.800391 0
0.5375 0.796875 0
0.667969 0.736914 0
0.601172 0.733691 0
0.534375 0.730469 0
0.664062 0.669922 0
0.597656 0.666992 0
0.53125 0.664062 0
0.796875 0.675781 0
0.730469 0.672852 0
0.664062 0.669922 0
0.792188 0.608203 0
0.726172 0.605566 0
0.660156 0.60293 0
0.7875 0.540625 0
0.721875 0.538281 0
0.65625 0.535937 0
0.664062 0.669922 0
0.597656 0.666992 0
0.53125 0.664062 0
0.660156 0.60293 0
0.594141 0.600293 0
0.528125 0.597656 0
0.65625 0.535937 0
0.590625 0.533594 0
0.525 0.53125 0
0.55 1.0625 0
0.48125 1.05781 0
0.4125 1.05313 0
0.546875 0.996094 0
0.478516 0.991699 0
0.410156 0.987305 0
0.54375 0.929688 0
0.475781 0.925586 0
0.407813 0.921484 0
0.4125 1.05313 0
0.34375 1.04844 0
0.275 1.04375 0
0.410156 0.987305 0
0.341797 0.98291 0
0.273438 0.978516 0
0.407813 0.921484 0
0.339844 0.917383 0
0.271875 0.913281 0
0.54375 0.929688 0
0.475781 0.925586 0
0.407813 0.921484 0
0.540625 0.863281 0
0.473047 0.859473 0
0.405469 0.855664 0
0.5375 0.796875 0
0.470313 0.793359 0
0.403125 0.789844 0
0.407813 0.921484 0
0.339844 0.917383 0
0.271875 0.913281 0
0.405469 0.855664 0
0.337891 0.851855 0
0.270313 0.848047 0
0.403125 0.789844 0
0.335938 0.786328 0
0.26875 0.782813 0
0.275 1.04375 0
0.20625 1.03906 0
0.1375 1.03437 0
0.273438 0.978516 0
0.205078 0.974121 0
0.136719 0.969727 0
0.271875 0.913281 0
0.203906 0.90918 0
0.135938 0.905078 0
0.1375 1.03437 0
0.06875 1.02969 0
0 1.025 0
0.136719 0.969727 0
0.0683594 0.965332 0
0 0.960937 0
0.135938 0.905078 0
0.0679688 0.900977 0
0 0.896875 0
0.271875 0.913281 0
0.203906 0.90918 0
0.135938 0.905078 0
0.270313 0.848047 0
0.202734 0.844238 0
0.135156 0.84043 0
0.26875 0.782813 0
0.201563 0.779297 0
0.134375 0.775781 0
0.135938 0.905078 0
0.0679688 0.900977 0
0 0.896875 0
0.135156 0.84043 0
0.0675781 0.836621 0
0 0.832812 0
0.134375 0.775781 0
0.0671875 0.772266 0
0 0.76875 0
0.5375 0.796875 0
0.470313 0.793359 0
0.403125 0.789844 0
0.534375 0.730469 0
0.467578 0.727246 0
0.400781 0.724023 0
0.53125 0.664062 0
0.464844 0.661133 0
0.398438 0.658203 0
0.403125 0.789844 0
0.335938 0.786328 0
0.26875 0.782813 0
0.400781 0.724023 0
0.333984 0.720801 0
0.267188 0.717578 0
0.398438 0.658203 0
0.332031 0.655273 0
0.265625 0.652344 0
0.53125 0.664062 0
0.464844 0.661133 0
0.398438 0.658203 0
0.528125 0.597656 0
0.462109 0.59502 0
0.396094 0.592383 0
0.525 0.53125 0
0.459375 0.528906 0
0.39375 0.526563 0
0.398438 0.658203 0
0.332031 0.655273 0
0.265625 0.652344 0
0.396094 0.592383 0
0.330078 0.589746 0
0.264062 0.587109 0
0.39375 0.526563 0
0.328125 0.524219 0
0.2625 0.521875 0
0.26875 0.782813 0
0.201563 0.779297 0
0.134375 0.775781 0
0.267188 0.717578 0
0.200391 0.714355 0
0.133594 0.711133 0
0.265625 0.652344 0
0.199219 0.649414 0
0.132812 0.646484 0
0.134375 0.775781 0
0.0671875 0.772266 0
0 0.76875 0
0.133594 0.711133 0
0.0667969 0.70791 0
0 0.704687 0
0.132812 0.646484 0
0.0664062 0.643555 0
0 0.640625 0
0.265625 0.652344 0
0.199219 0.649414 0
0.132812 0.646484 0
0.264062 0.587109 0
0.198047 0.584473 0
0.132031 0.581836 0
0.2625 0.521875 0
0.196875 0.519531 0
0.13125 0.517187 0
0.132812 0.646484 0
0.0664062 0.643555 0
0 0.640625 0
0.132031 0.581836 0
0.0660156 0.579199 0
0 0.576562 0
0.13125 0.517187 0
0.065625 0.514844 0
0 0.5125 0
1.05 0.55 0
0.984375 0.547656 0
0.91875 0.545313 0
1.04375 0.48125 0
0.978516 0.479199 0
0.913281 0.477148 0
1.0375 0.4125 0
0.972656 0.410742 0
0.907813 0.408984 0
0.91875 0.545313 0
0.853125 0.542969 0
0.7875 0.540625 0
0.913281 0.477148 0
0.848047 0.475098 0
0.782813 0.473047 0
0.907813 0.408984 0
0.842969 0.407227 0
0.778125 0.405469 0
1.0375 0.4125 0
0.972656 0.410742 0
0.907813 0.408984 0
1.03125 0.34375 0
0.966797 0.342285 0
0.902344 0.34082 0
1.025 0.275 0
0.960937 0.273828 0
0.896875 0.272656 0
0.907813 0.408984 0
0.842969 0.407227 0
0.778125 0.405469 0
0.902344 0.34082 0
0.837891 0.339355 0
0.773438 0.337891 0
0.896875 0.272656 0
0.832812 0.271484 0
0.76875 0.270313 0
0.7875 0.540625 0
0.721875 0.538281 0
0.65625 0.535937 0
0.782813 0.473047 0
0.717578 0.470996 0
0.652344 0.468945 0
0.778125 0.405469 0
0.713281 0.403711 0
0.648438 0.401953 0
0.65625 0.535937 0
0.590625 0.533594 0
0.525 0.53125 0
0.652344 0.468945 0
0.587109 0.466895 0
0.521875 0.464844 0
0.648438 0.401953 0
0.583594 0.400195 0
0.51875 0.398438 0
0.778125 0.405469 0
0.713281 0.403711 0
0.648438 0.401953 0
0.773438 0.337891 0
0.708984 0.336426 0
0.644531 0.334961 0
0.76875 0.270313 0
0.704687 0.269141 0
0.640625 0.267969 0
0.648438 0.401953 0
0.583594 0.400195 0
0.51875 0.398438 0
0.644531 0.334961 0
0.580078 0.333496 0
0.515625 0.332031 0
0.640625 0.267969 0
0.576562 0.266797 0
0.5125 0.265625 0
1.025 0.275 0
0.960937 0.273828 0
0.896875 0.272656 0
1.01875 0.20625 0
0.955078 0.205371 0
0.891406 0.204492 0
1.0125 0.1375 0
0.949219 0.136914 0
0.885937 0.136328 0
0.896875 0.272656 0
0.832812 0.271484 0
0.76875 0.270313 0
0.891406 0.204492 0
0.827734 0.203613 0
0.764062 0.202734 0
0.885937 0.136328 0
0.822656 0.135742 0
0.759375 0.135156 0
1.0125 0.1375 0
0.949219 0.136914 0
0.885937 0.136328 0
1.00625 0.06875 0
0.943359 0.068457 0
0.880469 0.0681641 0
1 0 0
0.9375 0 0
0.875 0 0
0.885937 0.136328 0
0.822656 0.135742 0
0.759375 0.135156 0
0.880469 0.0681641 0
0.817578 0.0678711 0
0.754687 0.0675781 0
0.875 0 0
0.8125 0 0
0.75 0 0
0.76875 0.270313 0
0.704687 0.269141 0
0.640625 0.267969 0
0.764062 0.202734 0
0.700391 0.201855 0
0.636719 0.200977 0
0.759375 0.135156 0
0.696094 0.13457 0
0.632812 0.133984 0
0.640625 0.267969 0
0.576562 0.266797 0
0.5125 0.265625 0
0.636719 0.200977 0
0.573047 0.200098 0
0.509375 0.199219 0
0.632812 0.133984 0
0.569531 0.133398 0
0.50625 0.132812 0
0.759375 0.135156 0
0.696094 0.13457 0
0.632812 0.133984 0
0.754687 0.0675781 0
0.691797 0.0672852 0
0.628906 0.0669922 0
0.75 0 0
0.6875 0 0
0.625 0 0
0.632812 0.133984 0
0.569531 0.133398 0
0.50625 0.132812 0
0.628906 0.0669922 0
0.566016 0.0666992 0
0.503125 0.0664062 0
0.625 0 0
0.5625 0 0
0.5 0 0
0.525 0.53125 0
0.459375 0.528906 0
0.39375 0.526563 0
0.521875 0.464844 0
0.456641 0.462793 0
0.391406 0.460742 0
0.51875 0.398438 0
0.453906 0.39668 0
0.389063 0.394922 0
0.39375 0.526563 0
0.328125 0.524219 0
0.2625 0.521875 0
0.391406 0.460742 0
0.326172 0.458691 0
0.260938 0.456641 0
0.389063 0.394922 0
0.324219 0.393164 0
0.259375 0.391406 0
0.51875 0.398438 0
0.453906 0.39668 0
0.389063 0.394922 0
0.515625 0.332031 0
0.451172 0.330566 0
0.386719 0.329102 0
0.5125 0.265625 0
0.448437 0.264453 0
0.384375 0.263281 0
0.389063 0.394922 0
0.324219 0.393164 0
0.259375 0.391406 0
0.386719 0.329102 0
0.322266 0.327637 0
0.257812 0.326172 0
0.384375 0.263281 0
0.320312 0.262109 0
0.25625 0.260937 0
0.2625 0.521875 0
0.196875 0.519531 0
0.13125 0.517187 0
0.260938 0.456641 0
0.195703 0.45459 0
0.130469 0.452539 0
0.259375 0.391406 0
0.194531 0.389648 0
0.129688 0.387891 0
0.13125 0.517187 0
0.065625 0.514844 0
0 0.5125 0
0.130469 0.452539 0
0.0652344 0.450488 0
0 0.448437 0
0.129688 0.387891 0
0.0648438 0.386133 0
0 0.384375 0
0.259375 0.391406 0
0.194531 0.389648 0
0.129688 0.387891 0
0.257812 0.326172 0
0.193359 0.324707 0
0.128906 0.323242 0
0.25625 0.260937 0
0.192187 0.259766 0
0.128125 0.258594 0
0.129688 0.387891 0
0.0648438 0.386133 0
0 0.384375 0
0.128906 0.323242 0
0.0644531 0.321777 0
0 0.320312 0
0.128125 0.258594 0
0.0640625 0.257422 0
0 0.25625 0
0.5125 0.265625 0
0.448437 0.264453 0
0.384375 0.263281 0
0.509375 0.199219 0
0.445703 0.19834 0
0.382031 0.197461 0
0.50625 0.132812 0
0.442969 0.132227 0
0.379688 0.131641 0
0.384375 0.263281 0
0.320312 0.262109 0
0.25625 0.260937 0
0.382031 0.197461 0
0.318359 0.196582 0
0.254687 0.195703 0
[...]
POINT_DATA 34560
VECTORS v double
1.19223 -0.225808 0
1.18309 -0.196969 0
1.17563 -0.171312 0
1.15885 -0.214518 0
1.14786 -0.188776 0
1.13897 -0.164881 0
1.12234 -0.202694 0
1.1101 -0.178998 0
1.09944 -0.156905 0
1.17563 -0.171312 0
1.16942 -0.147516 0
1.16452 -0.12648 0
1.13897 -0.164881 0
1.13097 -0.142961 0
1.12482 -0.123081 0
1.09944 -0.156905 0
1.09009 -0.136552 0
1.08217 -0.117884 0
1.12234 -0.202694 0
1.1101 -0.178998 0
1.09944 -0.156905 0
1.07991 -0.187541 0
1.0661 -0.166363 0
1.05413 -0.146502 0
1.03093 -0.173084 0
1.01638 -0.154114 0
1.00355 -0.136161 0
1.09944 -0.156905 0
1.09009 -0.136552 0
1.08217 -0.117884 0
1.05413 -0.146502 0
1.0434 -0.12805 0
1.03429 -0.111023 0
1.00355 -0.136161 0
0.992052 -0.11937 0
0.982111 -0.103757 0
1.16452 -0.12648 0
1.16007 -0.107386 0
1.15656 -0.0906432 0
1.12482 -0.123081 0
1.11877 -0.105093 0
1.11423 -0.0890452 0
1.08217 -0.117884 0
1.0749 -0.100981 0
1.06885 -0.0857349 0
1.15656 -0.0906432 0
1.15301 -0.0757409 0
1.15006 -0.0628351 0
1.11423 -0.0890452 0
1.10931 -0.0747366 0
1.10552 -0.0622074 0
1.06885 -0.0857349 0
1.06288 -0.0721644 0
1.05789 -0.0601323 0
1.08217 -0.117884 0
1.0749 -0.100981 0
1.06885 -0.0857349 0
1.03429 -0.111023 0
1.02586 -0.0954404 0
1.0188 -0.0813465 0
0.982111 -0.103757 0
0.97293 -0.0894059 0
0.965087 -0.0763308 0
1.06885 -0.0857349 0
1.06288 -0.0721644 0
1.05789 -0.0601323 0
1.0188 -0.0813465 0
1.01196 -0.0686853 0
1.00616 -0.0573958 0
0.965087 -0.0763308 0
0.957595 -0.0645311 0
0.951167 -0.0539635 0
1.03093 -0.173084 0
1.01638 -0.154114 0
1.00355 -0.136161 0
0.976648 -0.157685 0
0.96159 -0.140823 0
0.948193 -0.124755 0
0.917902 -0.142754 0
0.902496 -0.127758 0
0.888652 -0.113392 0
1.00355 -0.136161 0
0.992052 -0.11937 0
0.982111 -0.103757 0
0.948193 -0.124755 0
0.936082 -0.109636 0
0.925483 -0.0955117 0
0.888652 -0.113392 0
0.876095 -0.0998179 0
0.864991 -0.087073 0
0.917902 -0.142754 0
0.902496 -0.127758 0
0.888652 -0.113392 0
0.854063 -0.126575 0
0.838421 -0.113499 0
0.824327 -0.100915 0
0.785519 -0.11127 0
0.769885 -0.0999158 0
0.755736 -0.0889306 0
0.888652 -0.113392 0
0.876095 -0.0998179 0
0.864991 -0.087073 0
0.824327 -0.100915 0
0.811485 -0.0889648 0
0.800075 -0.0776976 0
0.755736 -0.0889306 0
0.742804 -0.0784547 0
0.731258 -0.0685377 0
0.982111 -0.103757 0
0.97293 -0.0894059 0
0.965087 -0.0763308 0
0.925483 -0.0955117 0
0.91571 -0.0824624 0
0.907233 -0.0705126 0
0.864991 -0.087073 0
0.854774 -0.0752522 0
0.845821 -0.0643793 0
0.965087 -0.0763308 0
0.957595 -0.0645311 0
0.951167 -0.0539635 0
0.907233 -0.0705126 0
0.899257 -0.0596866 0
0.892321 -0.0499546 0
0.845821 -0.0643793 0
0.837484 -0.0544995 0
0.830172 -0.0455882 0
0.864991 -0.087073 0
0.854774 -0.0752522 0
0.845821 -0.0643793 0
0.800075 -0.0776976 0
0.789575 -0.0671992 0
0.780325 -0.0575055 0
0.731258 -0.0685377 0
0.720635 -0.0592698 0
0.711229 -0.050683 0
0.845821 -0.0643793 0
0.837484 -0.0544995 0
0.830172 -0.0455882 0
0.780325 -0.0575055 0
0.771771 -0.048665 0
0.764238 -0.0406718 0
0.711229 -0.050683 0
0.702586 -0.042839 0
0.69495 -0.0357331 0
1.15006 -0.0628351 0
1.1469 -0.0515005 0
1.1441 -0.0417084 0
1.10552 -0.0622074 0
1.10128 -0.0511816 0
1.09788 -0.0415708 0
1.05789 -0.0601323 0
1.05285 -0.0495576 0
1.04858 -0.0402752 0
1.1441 -0.0417084 0
1.14099 -0.0330569 0
1.13803 -0.025487 0
1.09788 -0.0415708 0
1.09393 -0.0330575 0
1.09057 -0.0255668 0
1.04858 -0.0402752 0
1.04406 -0.0320785 0
1.04011 -0.0247953 0
1.05789 -0.0601323 0
1.05285 -0.0495576 0
1.04858 -0.0402752 0
1.00616 -0.0573958 0
1.00047 -0.0474014 0
0.995592 -0.0386292 0
0.951167 -0.0539635 0
0.944946 -0.0445946 0
0.939559 -0.0363418 0
1.04858 -0.0402752 0
1.04406 -0.0320785 0
1.04011 -0.0247953 0
0.995592 -0.0386292 0
0.990652 -0.0308587 0
0.986315 -0.0239135 0
0.939559 -0.0363418 0
0.934255 -0.0290257 0
0.929597 -0.0224951 0
1.13803 -0.025487 0
1.13487 -0.0185518 0
1.13175 -0.0121805 0
1.09057 -0.0255668 0
1.08689 -0.0187 0
1.08364 -0.0123384 0
1.04011 -0.0247953 0
1.0361 -0.0181192 0
1.03257 -0.0119297 0
1.13175 -0.0121805 0
1.12838 -0.00598907 0
1.125 0 0
1.08364 -0.0123384 0
1.08001 -0.00611355 0
1.07666 0 0
1.03257 -0.0119297 0
1.0288 -0.00590335 0
1.02539 0 0
1.04011 -0.0247953 0
1.0361 -0.0181192 0
1.03257 -0.0119297 0
0.986315 -0.0239135 0
0.982083 -0.0175196 0
0.978352 -0.0116002 0
0.929597 -0.0224951 0
0.925143 -0.0164923 0
0.921236 -0.0109184 0
1.03257 -0.0119297 0
1.0288 -0.00590335 0
1.02539 0 0
0.978352 -0.0116002 0
0.974581 -0.00579704 0
0.971191 0 0
0.921236 -0.0109184 0
0.917424 -0.00543888 0
0.914062 0 0
0.951167 -0.0539635 0
0.944946 -0.0445946 0
0.939559 -0.0363418 0
0.892321 -0.0499546 0
0.885727 -0.0413042 0
0.87995 -0.0336678 0
0.830172 -0.0455882 0
0.823307 -0.0376596 0
0.817252 -0.0306572 0
0.939559 -0.0363418 0
0.934255 -0.0290257 0
0.929597 -0.0224951 0
0.87995 -0.0336678 0
0.874419 -0.0269099 0
0.869537 -0.0208884 0
0.817252 -0.0306572 0
0.811566 -0.0244839 0
0.806524 -0.019002 0
0.830172 -0.0455882 0
0.823307 -0.0376596 0
0.817252 -0.0306572 0
0.764238 -0.0406718 0
0.757234 -0.0335485 0
0.751038 -0.0272588 0
0.69495 -0.0357331 0
0.687913 -0.0294019 0
0.681675 -0.0238169 0
0.817252 -0.0306572 0
0.811566 -0.0244839 0
0.806524 -0.019002 0
0.751038 -0.0272588 0
0.745303 -0.0217343 0
0.740213 -0.01686 0
0.681675 -0.0238169 0
0.675978 -0.0189448 0
0.670913 -0.0146833 0
0.929597 -0.0224951 0
0.925143 -0.0164923 0
0.921236 -0.0109184 0
0.869537 -0.0208884 0
0.864983 -0.0153535 0
0.860999 -0.0102013 0
0.806524 -0.019002 0
0.801906 -0.0139813 0
0.797869 -0.00931053 0
0.921236 -0.0109184 0
0.917424 -0.00543888 0
0.914062 0 0
0.860999 -0.0102013 0
0.857261 -0.00510582 0
0.854004 0 0
0.797869 -0.00931053 0
0.794186 -0.00467112 0
0.791016 0 0
0.806524 -0.019002 0
0.801906 -0.0139813 0
0.797869 -0.00931053 0
0.740213 -0.01686 0
0.735625 -0.0124202 0
0.731633 -0.00829911 0
0.670913 -0.0146833 0
0.666404 -0.0108407 0
0.662488 -0.00728936 0
0.797869 -0.00931053 0
0.794186 -0.00467112 0
0.791016 0 0
0.731633 -0.00829911 0
0.728097 -0.00417818 0
0.725098 0 0
0.662488 -0.00728936 0
0.659092 -0.00370415 0
0.65625 0 0
0.785519 -0.11127 0
0.769885 -0.0999158 0
0.755736 -0.0889306 0
0.712546 -0.0951519 0
0.696942 -0.0854905 0
0.682809 -0.0761075 0
0.63547 -0.0798281 0
0.619949 -0.0717521 0
0.605877 -0.0638771 0
0.755736 -0.0889306 0
0.742804 -0.0784547 0
0.731258 -0.0685377 0
0.682809 -0.0761075 0
0.669858 -0.06713 0
0.658278 -0.0586091 0
0.605877 -0.0638771 0
0.592985 -0.0563124 0
0.581455 -0.0491127 0
0.63547 -0.0798281 0
0.619949 -0.0717521 0
0.605877 -0.0638771 0
0.55457 -0.0634961 0
0.539054 -0.0570384 0
0.525009 -0.0507249 0
0.469276 -0.047892 0
0.453889 -0.0429895 0
0.439959 -0.0381911 0
0.605877 -0.0638771 0
0.592985 -0.0563124 0
0.581455 -0.0491127 0
0.525009 -0.0507249 0
0.512146 -0.0446423 0
0.500675 -0.0388433 0
0.439959 -0.0381911 0
0.427218 -0.0335533 0
0.41588 -0.0291276 0
0.731258 -0.0685377 0
0.720635 -0.0592698 0
0.711229 -0.050683 0
0.658278 -0.0586091 0
0.647633 -0.0506275 0
0.638196 -0.0432162 0
0.581455 -0.0491127 0
0.570889 -0.0423535 0
0.561523 -0.0360654 0
0.711229 -0.050683 0
0.702586 -0.042839 0
0.69495 -0.0357331 0
0.638196 -0.0432162 0
0.629572 -0.0364373 0
0.62195 -0.0302944 0
0.561523 -0.0360654 0
0.553023 -0.0303157 0
0.545524 -0.0251081 0
0.581455 -0.0491127 0
0.570889 -0.0423535 0
0.561523 -0.0360654 0
0.500675 -0.0388433 0
0.490218 -0.0333901 0
0.480986 -0.0283083 0
0.41588 -0.0291276 0
0.405616 -0.0249578 0
0.396605 -0.021068 0
0.561523 -0.0360654 0
0.553023 -0.0303157 0
0.545524 -0.0251081 0
0.480986 -0.0283083 0
0.472684 -0.0236627 0
0.465402 -0.0194644 0
0.396605 -0.021068 0
0.388597 -0.0175176 0
0.381639 -0.0143191 0
0.469276 -0.047892 0
0.453889 -0.0429895 0
0.439959 -0.0381911 0
0.377686 -0.031425 0
0.362653 -0.0280646 0
0.349104 -0.0247937 0
0.272028 -0.0165008 0
0.258855 -0.0146904 0
0.247099 -0.0129437 0
0.439959 -0.0381911 0
0.427218 -0.0335533 0
0.41588 -0.0291276 0
0.349104 -0.0247937 0
0.336751 -0.0216475 0
0.325824 -0.0186635 0
0.247099 -0.0129437 0
0.236468 -0.0112605 0
0.227171 -0.00967853 0
0.272028 -0.0165008 0
0.258855 -0.0146904 0
0.247099 -0.0129437 0
0.144588 -0.0046832 0
0.136387 -0.00410591 0
0.129258 -0.00356456 0
0 0 0
0 0 0
0 0 0
0.247099 -0.0129437 0
0.236468 -0.0112605 0
0.227171 -0.00967853 0
0.129258 -0.00356456 0
0.12287 -0.00304104 0
0.11742 -0.00256242 0
0 0 0
0 0 0
0 0 0
0.41588 -0.0291276 0
0.405616 -0.0249578 0
0.396605 -0.021068 0
0.325824 -0.0186635 0
0.316024 -0.015871 0
0.307501 -0.0132776 0
0.227171 -0.00967853 0
0.21894 -0.00820385 0
0.211878 -0.00684328 0
0.396605 -0.021068 0
0.388597 -0.0175176 0
0.381639 -0.0143191 0
0.307501 -0.0132776 0
0.300045 -0.0109267 0
0.29366 -0.00882648 0
0.211878 -0.00684328 0
0.205803 -0.00561479 0
0.200685 -0.00452568 0
0.227171 -0.00967853 0
0.21894 -0.00820385 0
0.211878 -0.00684328 0
0.11742 -0.00256242 0
0.112669 -0.00212442 0
0.108674 -0.00173047 0
0 0 0
0 0 0
0 0 0
0.211878 -0.00684328 0
0.205803 -0.00561479 0
0.200685 -0.00452568 0
0.108674 -0.00173047 0
0.10531 -0.00138508 0
0.102502 -0.00108791 0
0 0 0
0 0 0
0 0 0
0.69495 -0.0357331 0
0.687913 -0.0294019 0
0.681675 -0.0238169 0
0.62195 -0.0302944 0
0.614992 -0.0248229 0
0.608833 -0.020005 0
0.545524 -0.0251081 0
0.538745 -0.0204799 0
0.532763 -0.0164161 0
0.681675 -0.0238169 0
0.675978 -0.0189448 0
0.670913 -0.0146833 0
0.608833 -0.020005 0
0.603278 -0.0158282 0
0.598343 -0.0122184 0
0.532763 -0.0164161 0
0.527441 -0.0129255 0
0.522724 -0.00995065 0
0.545524 -0.0251081 0
0.538745 -0.0204799 0
0.532763 -0.0164161 0
0.465402 -0.0194644 0
0.4589 -0.0157474 0
0.453208 -0.0124988 0
0.381639 -0.0143191 0
0.375533 -0.0115048 0
0.370252 -0.00905916 0
0.532763 -0.0164161 0
0.527441 -0.0129255 0
0.522724 -0.00995065 0
0.453208 -0.0124988 0
0.448226 -0.0097335 0
0.443843 -0.0074162 0
0.370252 -0.00905916 0
0.365727 -0.00700286 0
0.361797 -0.00531213 0
0.670913 -0.0146833 0
0.666404 -0.0108407 0
0.662488 -0.00728936 0
0.598343 -0.0122184 0
0.594004 -0.00901061 0
0.590252 -0.00607629 0
0.522724 -0.00995065 0
0.518622 -0.0073617 0
0.515084 -0.00502987 0
0.662488 -0.00728936 0
0.659092 -0.00370415 0
0.65625 0 0
0.590252 -0.00607629 0
0.587079 -0.00309348 0
0.584473 0 0
0.515084 -0.00502987 0
0.512144 -0.00262295 0
0.509766 0 0
0.522724 -0.00995065 0
0.518622 -0.0073617 0
0.515084 -0.00502987 0
0.443843 -0.0074162 0
0.440077 -0.00544989 0
0.436844 -0.00373082 0
0.361797 -0.00531213 0
0.358468 -0.00392275 0
0.355623 -0.00275177 0
0.515084 -0.00502987 0
0.512144 -0.00262295 0
0.509766 0 0
0.436844 -0.00373082 0
0.434209 -0.00194949 0
0.432129 0 0
0.355623 -0.00275177 0
0.353335 -0.00152097 0
0.351562 0 0
0.381639 -0.0143191 0
0.375533 -0.0115048 0
0.370252 -0.00905916 0
0.29366 -0.00882648 0
0.288188 -0.00700162 0
0.283541 -0.00542932 0
0.200685 -0.00452568 0
0.196406 -0.00358662 0
0.192839 -0.00278133 0
0.370252 -0.00905916 0
0.365727 -0.00700286 0
0.361797 -0.00531213 0
0.283541 -0.00542932 0
0.279672 -0.0041254 0
0.276379 -0.00307932 0
0.192839 -0.00278133 0
0.189953 -0.0021187 0
0.187544 -0.00159782 0
0.200685 -0.00452568 0
0.196406 -0.00358662 0
0.192839 -0.00278133 0
0.102502 -0.00108791 0
0.100225 -0.000843069 0
0.0983083 -0.000639194 0
0 0 0
0 0 0
0 0 0
0.192839 -0.00278133 0
0.189953 -0.0021187 0
0.187544 -0.00159782 0
0.0983083 -0.000639194 0
0.0968093 -0.000476479 0
0.0955113 -0.000358795 0
0 0 0
0 0 0
0 0 0
0.361797 -0.00531213 0
0.358468 -0.00392275 0
0.355623 -0.00275177 0
0.276379 -0.00307932 0
0.27365 -0.00224292 0
0.271335 -0.00157368 0
0.187544 -0.00159782 0
0.1856 -0.00119025 0
0.183954 -0.000874969 0
0.355623 -0.00275177 0
0.353335 -0.00152097 0
0.351562 0 0
0.271335 -0.00157368 0
0.26948 -0.000870288 0
0.268066 0 0
0.183954 -0.000874969 0
0.182642 -0.000552947 0
0.181641 0 0
0.187544 -0.00159782 0
0.1856 -0.00119025 0
0.183954 -0.000874969 0
0.0955113 -0.000358795 0
0.094491 -0.000269503 0
0.0935789 -0.000206116 0
0 0 0
0 0 0
0 0 0
0.183954 -0.000874969 0
0.182642 -0.000552947 0
0.181641 0 0
0.0935789 -0.000206116 0
0.0928365 -0.000119388 0
0.0922852 0 0
0 0 0
0 0 0
0 0 0
1.60844 -0.469881 0
1.56814 -0.479576 0
1.52758 -0.484764 0
1.55264 -0.418845 0
1.51512 -0.428843 0
1.47634 -0.43441 0
1.48827 -0.373362 0
1.45475 -0.383828 0
1.42059 -0.390281 0
1.52758 -0.484764 0
1.48723 -0.483992 0
1.4476 -0.479012 0
1.47634 -0.43441 0
1.43906 -0.435423 0
1.40125 -0.432088 0
1.42059 -0.390281 0
1.38737 -0.392788 0
1.35416 -0.39136 0
1.48827 -0.373362 0
1.45475 -0.383828 0
1.42059 -0.390281 0
1.43294 -0.334544 0
1.40288 -0.343438 0
1.37186 -0.348991 0
1.36977 -0.295684 0
1.34099 -0.303934 0
1.31143 -0.309295 0
1.42059 -0.390281 0
1.38737 -0.392788 0
1.35416 -0.39136 0
1.37186 -0.348991 0
1.34143 -0.351172 0
1.3106 -0.350055 0
1.31143 -0.309295 0
1.28239 -0.31182 0
1.25313 -0.311507 0
1.4476 -0.479012 0
1.41047 -0.46881 0
1.37494 -0.454648 0
1.40125 -0.432088 0
1.3671 -0.424623 0
1.33331 -0.413798 0
1.35416 -0.39136 0
1.32361 -0.386403 0
1.2936 -0.37806 0
1.37494 -0.454648 0
1.34281 -0.437169 0
1.31285 -0.417025 0
1.33331 -0.413798 0
1.30386 -0.399953 0
1.27542 -0.383435 0
1.2936 -0.37806 0
1.2668 -0.366813 0
1.24092 -0.352896 0
1.35416 -0.39136 0
1.32361 -0.386403 0
1.2936 -0.37806 0
1.3106 -0.350055 0
1.28168 -0.34588 0
1.25293 -0.338826 0
1.25313 -0.311507 0
1.22558 -0.308613 0
1.19841 -0.303249 0
1.2936 -0.37806 0
1.2668 -0.366813 0
1.24092 -0.352896 0
1.25293 -0.338826 0
1.22677 -0.329377 0
1.20137 -0.317671 0
1.19841 -0.303249 0
1.17359 -0.295769 0
1.14963 -0.286252 0
1.36977 -0.295684 0
1.34099 -0.303934 0
1.31143 -0.309295 0
1.29844 -0.262223 0
1.2718 -0.270013 0
1.24445 -0.275239 0
1.23011 -0.230213 0
1.20505 -0.237638 0
1.1793 -0.242801 0
1.31143 -0.309295 0
1.28239 -0.31182 0
1.25313 -0.311507 0
1.24445 -0.275239 0
1.21773 -0.277926 0
1.1908 -0.278092 0
1.1793 -0.242801 0
1.15402 -0.245675 0
1.1285 -0.246304 0
1.23011 -0.230213 0
1.20505 -0.237638 0
1.1793 -0.242801 0
1.1615 -0.199175 0
1.13733 -0.205943 0
1.11244 -0.210723 0
1.08812 -0.169388 0
1.06474 -0.175688 0
1.04064 -0.180302 0
1.1793 -0.242801 0
1.15402 -0.245675 0
1.1285 -0.246304 0
1.11244 -0.210723 0
1.08794 -0.213551 0
1.06318 -0.214438 0
1.04064 -0.180302 0
1.01693 -0.183251 0
0.992962 -0.184526 0
1.25313 -0.311507 0
1.22558 -0.308613 0
1.19841 -0.303249 0
1.1908 -0.278092 0
1.16538 -0.275929 0
1.14023 -0.271532 0
1.1285 -0.246304 0
1.10415 -0.244841 0
1.08 -0.24138 0
1.19841 -0.303249 0
1.17359 -0.295769 0
1.14963 -0.286252 0
1.14023 -0.271532 0
1.11701 -0.265208 0
1.09446 -0.25703 0
1.08 -0.24138 0
1.05749 -0.236191 0
1.03561 -0.229341 0
1.1285 -0.246304 0
1.10415 -0.244841 0
1.08 -0.24138 0
1.06318 -0.214438 0
1.03947 -0.213551 0
1.01599 -0.210911 0
0.992962 -0.184526 0
0.969945 -0.184251 0
0.947123 -0.182436 0
1.08 -0.24138 0
1.05749 -0.236191 0
1.03561 -0.229341 0
1.01599 -0.210911 0
0.993975 -0.206774 0
0.972596 -0.20115 0
0.947123 -0.182436 0
0.925601 -0.179282 0
0.904669 -0.174796 0
1.31285 -0.417025 0
1.28723 -0.395016 0
1.26429 -0.37108 0
1.27542 -0.383435 0
1.25197 -0.364839 0
1.23004 -0.344806 0
1.24092 -0.352896 0
1.21869 -0.337067 0
1.19771 -0.31953 0
1.26429 -0.37108 0
1.24503 -0.346775 0
1.22856 -0.321867 0
1.23004 -0.344806 0
1.21219 -0.323866 0
1.1961 -0.30199 0
1.19771 -0.31953 0
1.17996 -0.300892 0
1.1637 -0.281313 0
1.24092 -0.352896 0
1.21869 -0.337067 0
1.19771 -0.31953 0
1.20137 -0.317671 0
1.17909 -0.304296 0
1.15803 -0.289344 0
1.14963 -0.286252 0
1.12844 -0.275146 0
1.1085 -0.262576 0
1.19771 -0.31953 0
1.17996 -0.300892 0
1.1637 -0.281313 0
1.15803 -0.289344 0
1.13997 -0.27345 0
1.12346 -0.256682 0
1.1085 -0.262576 0
1.09112 -0.248997 0
1.07516 -0.234472 0
1.22856 -0.321867 0
1.21559 -0.297276 0
1.20548 -0.27258 0
1.1961 -0.30199 0
1.18368 -0.279843 0
1.17314 -0.257674 0
1.1637 -0.281313 0
1.15046 -0.261503 0
1.13893 -0.241533 0
1.20548 -0.27258 0
1.19769 -0.248791 0
1.19223 -0.225808 0
1.17314 -0.257674 0
1.16505 -0.235949 0
1.15885 -0.214518 0
1.13893 -0.241533 0
1.12977 -0.221909 0
1.12234 -0.202694 0
1.1637 -0.281313 0
1.15046 -0.261503 0
1.13893 -0.241533 0
1.12346 -0.256682 0
1.10979 -0.23957 0
1.09783 -0.222117 0
1.07516 -0.234472 0
1.06162 -0.219442 0
1.04962 -0.203995 0
1.13893 -0.241533 0
1.12977 -0.221909 0
1.12234 -0.202694 0
1.09783 -0.222117 0
1.08803 -0.204762 0
1.07991 -0.187541 0
1.04962 -0.203995 0
1.03949 -0.188519 0
1.03093 -0.173084 0
1.14963 -0.286252 0
1.12844 -0.275146 0
1.1085 -0.262576 0
1.09446 -0.25703 0
1.07419 -0.24742 0
1.05494 -0.236467 0
1.03561 -0.229341 0
1.01571 -0.221193 0
0.996802 -0.211822 0
1.1085 -0.262576 0
1.09112 -0.248997 0
1.07516 -0.234472 0
1.05494 -0.236467 0
1.03786 -0.224603 0
1.02205 -0.211847 0
0.996802 -0.211822 0
0.979874 -0.201591 0
0.964199 -0.19053 0
1.03561 -0.229341 0
1.01571 -0.221193 0
0.996802 -0.211822 0
0.972596 -0.20115 0
0.952974 -0.194365 0
0.934323 -0.186444 0
0.904669 -0.174796 0
0.885269 -0.169245 0
0.86679 -0.162658 0
0.996802 -0.211822 0
0.979874 -0.201591 0
0.964199 -0.19053 0
0.934323 -0.186444 0
0.917427 -0.177719 0
0.90173 -0.168207 0
0.86679 -0.162658 0
0.849888 -0.155314 0
0.834151 -0.147234 0
1.07516 -0.234472 0
1.06162 -0.219442 0
1.04962 -0.203995 0
1.02205 -0.211847 0
1.00838 -0.198645 0
0.996154 -0.185052 0
0.964199 -0.19053 0
0.950434 -0.179002 0
0.938058 -0.167051 0
1.04962 -0.203995 0
1.03949 -0.188519 0
1.03093 -0.173084 0
0.996154 -0.185052 0
0.985657 -0.171405 0
0.976648 -0.157685 0
0.938058 -0.167051 0
0.927272 -0.154958 0
0.917902 -0.142754 0
0.964199 -0.19053 0
0.950434 -0.179002 0
0.938058 -0.167051 0
0.90173 -0.168207 0
0.887732 -0.158232 0
0.875072 -0.147828 0
0.834151 -0.147234 0
0.819971 -0.138694 0
0.807107 -0.129734 0
0.938058 -0.167051 0
0.927272 -0.154958 0
0.917902 -0.142754 0
0.875072 -0.147828 0
0.863881 -0.137266 0
0.854063 -0.126575 0
0.807107 -0.129734 0
0.795634 -0.120584 0
0.785519 -0.11127 0
1.08812 -0.169388 0
1.06474 -0.175688 0
1.04064 -0.180302 0
1.01399 -0.142527 0
0.991249 -0.148108 0
0.967815 -0.152258 0
0.939463 -0.115758 0
0.916978 -0.120804 0
0.893764 -0.124637 0
1.04064 -0.180302 0
1.01693 -0.183251 0
0.992962 -0.184526 0
0.967815 -0.152258 0
0.944667 -0.154977 0
0.921243 -0.15626 0
0.893764 -0.124637 0
0.870789 -0.127262 0
0.847516 -0.128674 0
0.939463 -0.115758 0
0.916978 -0.120804 0
0.893764 -0.124637 0
0.862437 -0.0900038 0
0.840282 -0.0943872 0
0.817358 -0.0977638 0
0.779017 -0.0650942 0
0.757443 -0.0688023 0
0.734982 -0.071724 0
0.893764 -0.124637 0
0.870789 -0.127262 0
0.847516 -0.128674 0
0.817358 -0.0977638 0
0.794582 -0.100144 0
0.771464 -0.101524 0
0.734982 -0.071724 0
0.71258 -0.0738658 0
0.689747 -0.0752163 0
0.992962 -0.184526 0
0.969945 -0.184251 0
0.947123 -0.182436 0
0.921243 -0.15626 0
0.898601 -0.156211 0
0.876111 -0.15484 0
0.847516 -0.128674 0
0.824924 -0.128963 0
0.802468 -0.128132 0
0.947123 -0.182436 0
0.925601 -0.179282 0
0.904669 -0.174796 0
0.876111 -0.15484 0
0.854745 -0.152327 0
0.833933 -0.148669 0
0.802468 -0.128132 0
0.781021 -0.126331 0
0.760113 -0.123553 0
0.847516 -0.128674 0
0.824924 -0.128963 0
0.802468 -0.128132 0
0.771464 -0.101524 0
0.74891 -0.101981 0
0.726441 -0.101506 0
0.689747 -0.0752163 0
0.667362 -0.0758386 0
0.64499 -0.07572 0
0.802468 -0.128132 0
0.781021 -0.126331 0
0.760113 -0.123553 0
0.726441 -0.101506 0
0.704846 -0.100229 0
0.683738 -0.0981404 0
0.64499 -0.07572 0
0.623361 -0.0749654 0
0.602161 -0.0735636 0
0.779017 -0.0650942 0
0.757443 -0.0688023 0
0.734982 -0.071724 0
0.681249 -0.0421002 0
0.661254 -0.0449078 0
0.640167 -0.0471455 0
0.540611 -0.0204839 0
0.5242 -0.022247 0
0.506465 -0.0236863 0
0.734982 -0.071724 0
0.71258 -0.0738658 0
0.689747 -0.0752163 0
0.640167 -0.0471455 0
0.618894 -0.0488186 0
0.597015 -0.0499134 0
0.506465 -0.0236863 0
0.488293 -0.0248114 0
0.469327 -0.0255961 0
0.540611 -0.0204839 0
0.5242 -0.022247 0
0.506465 -0.0236863 0
0.320913 -0.00629389 0
0.310861 -0.00687434 0
0.29966 -0.00732784 0
0 0 0
0 0 0
0 0 0
0.506465 -0.0236863 0
0.488293 -0.0248114 0
0.469327 -0.0255961 0
0.29966 -0.00732784 0
0.28799 -0.00769435 0
0.275614 -0.00792433 0
0 0 0
0 0 0
0 0 0
0.689747 -0.0752163 0
0.667362 -0.0758386 0
0.64499 -0.07572 0
0.597015 -0.0499134 0