# vtk DataFile Version 3.0
#This file was generated by the deal.II library on 2025/1/7 at 19:52:23
ASCII
DATASET UNSTRUCTURED_GRID

POINTS 34560 double
1.1 1.1 0
1.03125 1.09531 0
0.9625 1.09063 0
1.09375 1.03125 0
1.02539 1.02686 0
0.957031 1.02246 0
1.0875 0.9625 0
1.01953 0.958398 0
0.951563 0.954297 0
0.9625 1.09063 0
0.89375 1.08594 0
0.825 1.08125 0
0.957031 1.02246 0
0.888672 1.01807 0
0.820312 1.01367 0
0.951563 0.954297 0
0.883594 0.950195 0
0.815625 0.946094 0
1.0875 0.9625 0
1.01953 0.958398 0
0.951563 0.954297 0
1.08125 0.89375 0
1.01367 0.889941 0
0.946094 0.886133 0
1.075 0.825 0
1.00781 0.821484 0
0.940625 0.817969 0
0.951563 0.954297 0
0.883594 0.950195 0
0.815625 0.946094 0
0.946094 0.886133 0
0.878516 0.882324 0
0.810938 0.878516 0
0.940625 0.817969 0
0.873438 0.814453 0
0.80625 0.810937 0
0.825 1.08125 0
0.75625 1.07656 0
0.6875 1.07187 0
0.820312 1.01367 0
0.751953 1.00928 0
0.683594 1.00488 0
0.815625 0.946094 0
0.747656 0.941992 0
0.679688 0.937891 0
0.6875 1.07187 0
0.61875 1.06719 0
0.55 1.0625 0
0.683594 1.00488 0
0.615234 1.00049 0
0.546875 0.996094 0
0.679688 0.937891 0
0.611719 0.933789 0
0.54375 0.929688 0
0.815625 0.946094 0
0.747656 0.941992 0
0.679688 0.937891 0
0.810938 0.878516 0
0.743359 0.874707 0
0.675781 0.870898 0
0.80625 0.810937 0
0.739063 0.807422 0
0.671875 0.803906 0
0.679688 0.937891 0
0.611719 0.933789 0
0.54375 0.929688 0
0.675781 0.870898 0
0.608203 0.86709 0
0.540625 0.863281 0
0.671875 0.803906 0
0.604688 0.800391 0
0.5375 0.796875 0
1.075 0.825 0
1.00781 0.821484 0
0.940625 0.817969 0
1.06875 0.75625 0
1.00195 0.753027 0
0.935156 0.749805 0
1.0625 0.6875 0
0.996094 0.68457 0
0.929688 0.681641 0
0.940625 0.817969 0
0.873438 0.814453 0
0.80625 0.810937 0
0.935156 0.749805 0
0.868359 0.746582 0
0.801563 0.743359 0
0.929688 0.681641 0
0.863281 0.678711 0
0.796875 0.675781 0
1.0625 0.6875 0
0.996094 0.68457 0
0.929688 0.681641 0
1.05625 0.61875 0
0.990234 0.616113 0
0.924219 0.613477 0
1.05 0.55 0
0.984375 0.547656 0
0.91875 0.545313 0
0.929688 0.681641 0
0.863281 0.678711 0
0.796875 0.675781 0
0.924219 0.613477 0
0.858203 0.61084 0
0.792188 0.608203 0
0.91875 0.545313 0
0.853125 0.542969 0
0.7875 0.540625 0
0.80625 0.810937 0
0.739063 0.807422 0
0.671875 0.803906 0
0.801563 0.743359 0
0.734766 0.740137 0
0.667969 0.736914 0
0.796875 0.675781 0
0.730469 0.672852 0
0.664062 0.669922 0
0.671875 0.803906 0
0.604688 0.800391 0
0.5375 0.796875 0
0.667969 0.736914 0
0.601172 0.733691 0
0.534375 0.730469 0
0.664062 0.669922 0
0.597656 0.666992 0
0.53125 0.664062 0
0.796875 0.675781 0
0.730469 0.672852 0
0.664062 0.669922 0
0.792188 0.608203 0
0.726172 0.605566 0
0.660156 0.60293 0
0.7875 0.540625 0
0.721875 0.538281 0
0.65625 0.535937 0
0.664062 0.669922 0
0.597656 0.666992 0
0.53125 0.664062 0
0.660156 0.60293 0
0.594141 0.600293 0
0.528125 0.597656 0
0.65625 0.535937 0
0.590625 0.533594 0
0.525 0.53125 0
0.55 1.0625 0
0.48125 1.05781 0
0.4125 1.05313 0
0.546875 0.996094 0
0.478516 0.991699 0
0.410156 0.987305 0
0.54375 0.929688 0
0.475781 0.925586 0
0.407813 0.921484 0
0.4125 1.05313 0
0.34375 1.04844 0
0.275 1.04375 0
0.410156 0.987305 0
0.341797 0.98291 0
0.273438 0.978516 0
0.407813 0.921484 0
0.339844 0.917383 0
0.271875 0.913281 0
0.54375 0.929688 0
0.475781 0.925586 0
0.407813 0.921484 0
0.540625 0.863281 0
0.473047 0.859473 0
0.405469 0.855664 0
0.5375 0.796875 0
0.470313 0.793359 0
0.403125 0.789844 0
0.407813 0.921484 0
0.339844 0.917383 0
0.271875 0.913281 0
0.405469 0.855664 0
0.337891 0.851855 0
0.270313 0.848047 0
0.403125 0.789844 0
0.335938 0.786328 0
0.26875 0.782813 0
0.275 1.04375 0
0.20625 1.03906 0
0.1375 1.03437 0
0.273438 0.978516 0
0.205078 0.974121 0
0.136719 0.969727 0
0.271875 0.913281 0
0.203906 0.90918 0
0.135938 0.905078 0
0.1375 1.03437 0
0.06875 1.02969 0
0 1.025 0
0.136719 0.969727 0
0.0683594 0.965332 0
0 0.960937 0
0.135938 0.905078 0
0.0679688 0.900977 0
0 0.896875 0
0.271875 0.913281 0
0.203906 0.90918 0
0.135938 0.905078 0
0.270313 0.848047 0
0.202734 0.844238 0
0.135156 0.84043 0
0.26875 0.782813 0
0.201563 0.779297 0
0.134375 0.775781 0
0.135938 0.905078 0
0.0679688 0.900977 0
0 0.896875 0
0.135156 0.84043 0
0.0675781 0.836621 0
0 0.832812 0
0.134375 0.775781 0
0.0671875 0.772266 0
0 0.76875 0
0.5375 0.796875 0
0.470313 0.793359 0
0.403125 0.789844 0
0.534375 0.730469 0
0.467578 0.727246 0
0.400781 0.724023 0
0.53125 0.664062 0
0.464844 0.661133 0
0.398438 0.658203 0
0.403125 0.789844 0
0.335938 0.786328 0
0.26875 0.782813 0
0.400781 0.724023 0
0.333984 0.720801 0
0.267188 0.717578 0
0.398438 0.658203 0
0.332031 0.655273 0
0.265625 0.652344 0
0.53125 0.664062 0
0.464844 0.661133 0
0.398438 0.658203 0
0.528125 0.597656 0
0.462109 0.59502 0
0.396094 0.592383 0
0.525 0.53125 0
0.459375 0.528906 0
0.39375 0.526563 0
0.398438 0.658203 0
0.332031 0.655273 0
0.265625 0.652344 0
0.396094 0.592383 0
0.330078 0.589746 0
0.264062 0.587109 0
0.39375 0.526563 0
0.328125 0.524219 0
0.2625 0.521875 0
0.26875 0.782813 0
0.201563 0.779297 0
0.134375 0.775781 0
0.267188 0.717578 0
0.200391 0.714355 0
0.133594 0.711133 0
0.265625 0.652344 0
0.199219 0.649414 0
0.132812 0.646484 0
0.134375 0.775781 0
0.0671875 0.772266 0
0 0.76875 0
0.133594 0.711133 0
0.0667969 0.70791 0
0 0.704687 0
0.132812 0.646484 0
0.0664062 0.643555 0
0 0.640625 0
0.265625 0.652344 0
0.199219 0.649414 0
0.132812 0.646484 0
0.264062 0.587109 0
0.198047 0.584473 0
0.132031 0.581836 0
0.2625 0.521875 0
0.196875 0.519531 0
0.13125 0.517187 0
0.132812 0.646484 0
0.0664062 0.643555 0
0 0.640625 0
0.132031 0.581836 0
0.0660156 0.579199 0
0 0.576562 0
0.13125 0.517187 0
0.065625 0.514844 0
0 0.5125 0
1.05 0.55 0
0.984375 0.547656 0
0.91875 0.545313 0
1.04375 0.48125 0
0.978516 0.479199 0
0.913281 0.477148 0
1.0375 0.4125 0
0.972656 0.410742 0
0.907813 0.408984 0
0.91875 0.545313 0
0.853125 0.542969 0
0.7875 0.540625 0
0.913281 0.477148 0
0.848047 0.475098 0
0.782813 0.473047 0
0.907813 0.408984 0
0.842969 0.407227 0
0.778125 0.405469 0
1.0375 0.4125 0
0.972656 0.410742 0
0.907813 0.408984 0
1.03125 0.34375 0
0.966797 0.342285 0
0.902344 0.34082 0
1.025 0.275 0
0.960937 0.273828 0
0.896875 0.272656 0
0.907813 0.408984 0
0.842969 0.407227 0
0.778125 0.405469 0
0.902344 0.34082 0
0.837891 0.339355 0
0.773438 0.337891 0
0.896875 0.272656 0
0.832812 0.271484 0
0.76875 0.270313 0
0.7875 0.540625 0
0.721875 0.538281 0
0.65625 0.535937 0
0.782813 0.473047 0
0.717578 0.470996 0
0.652344 0.468945 0
0.778125 0.405469 0
0.713281 0.403711 0
0.648438 0.401953 0
0.65625 0.535937 0
0.590625 0.533594 0
0.525 0.53125 0
0.652344 0.468945 0
0.587109 0.466895 0
0.521875 0.464844 0
0.648438 0.401953 0
0.583594 0.400195 0
0.51875 0.398438 0
0.778125 0.405469 0
0.713281 0.403711 0
0.648438 0.401953 0
0.773438 0.337891 0
0.708984 0.336426 0
0.644531 0.334961 0
0.76875 0.270313 0
0.704687 0.269141 0
0.640625 0.267969 0
0.648438 0.401953 0
0.583594 0.400195 0
0.51875 0.398438 0
0.644531 0.334961 0
0.580078 0.333496 0
0.515625 0.332031 0
0.640625 0.267969 0
0.576562 0.266797 0
0.5125 0.265625 0
1.025 0.275 0
0.960937 0.273828 0
0.896875 0.272656 0
1.01875 0.20625 0
0.955078 0.205371 0
0.891406 0.204492 0
1.0125 0.1375 0
0.949219 0.136914 0
0.885937 0.136328 0
0.896875 0.272656 0
0.832812 0.271484 0
0.76875 0.270313 0
0.891406 0.204492 0
0.827734 0.203613 0
0.764062 0.202734 0
0.885937 0.136328 0
0.822656 0.135742 0
0.759375 0.135156 0
1.0125 0.1375 0
0.949219 0.136914 0
0.885937 0.136328 0
1.00625 0.06875 0
0.943359 0.068457 0
0.880469 0.0681641 0
1 0 0
0.9375 0 0
0.875 0 0
0.885937 0.136328 0
0.822656 0.135742 0
0.759375 0.135156 0
0.880469 0.0681641 0
0.817578 0.0678711 0
0.754687 0.0675781 0
0.875 0 0
0.8125 0 0
0.75 0 0
0.76875 0.270313 0
0.704687 0.269141 0
0.640625 0.267969 0
0.764062 0.202734 0
0.700391 0.201855 0
0.636719 0.200977 0
0.759375 0.135156 0
0.696094 0.13457 0
0.632812 0.133984 0
0.640625 0.267969 0
0.576562 0.266797 0
0.5125 0.265625 0
0.636719 0.200977 0
0.573047 0.200098 0
0.509375 0.199219 0
0.632812 0.133984 0
0.569531 0.133398 0
0.50625 0.132812 0
0.759375 0.135156 0
0.696094 0.13457 0
0.632812 0.133984 0
0.754687 0.0675781 0
0.691797 0.0672852 0
0.628906 0.0669922 0
0.75 0 0
0.6875 0 0
0.625 0 0
0.632812 0.133984 0
0.569531 0.133398 0
0.50625 0.132812 0
0.628906 0.0669922 0
0.566016 0.0666992 0
0.503125 0.0664062 0
0.625 0 0
0.5625 0 0
0.5 0 0
0.525 0.53125 0
0.459375 0.528906 0
0.39375 0.526563 0
0.521875 0.464844 0
0.456641 0.462793 0
0.391406 0.460742 0
0.51875 0.398438 0
0.453906 0.39668 0
0.389063 0.394922 0
0.39375 0.526563 0
0.328125 0.524219 0
0.2625 0.521875 0
0.391406 0.460742 0
0.326172 0.458691 0
0.260938 0.456641 0
0.389063 0.394922 0
0.324219 0.393164 0
0.259375 0.391406 0
0.51875 0.398438 0
0.453906 0.39668 0
0.389063 0.394922 0
0.515625 0.332031 0
0.451172 0.330566 0
0.386719 0.329102 0
0.5125 0.265625 0
0.448437 0.264453 0
0.384375 0.263281 0
0.389063 0.394922 0
0.324219 0.393164 0
0.259375 0.391406 0
0.386719 0.329102 0
0.322266 0.327637 0
0.257812 0.326172 0
0.384375 0.263281 0
0.320312 0.262109 0
0.25625 0.260937 0
0.2625 0.521875 0
0.196875 0.519531 0
0.13125 0.517187 0
0.260938 0.456641 0
0.195703 0.45459 0
0.130469 0.452539 0
0.259375 0.391406 0
0.194531 0.389648 0
0.129688 0.387891 0
0.13125 0.517187 0
0.065625 0.514844 0
0 0.5125 0
0.130469 0.452539 0
0.0652344 0.450488 0
0 0.448437 0
0.129688 0.387891 0
0.0648438 0.386133 0
0 0.384375 0
0.259375 0.391406 0
0.194531 0.389648 0
0.129688 0.387891 0
0.257812 0.326172 0
0.193359 0.324707 0
0.128906 0.323242 0
0.25625 0.260937 0
0.192187 0.259766 0
0.128125 0.258594 0
0.129688 0.387891 0
0.0648438 0.386133 0
0 0.384375 0
0.128906 0.323242 0
0.0644531 0.321777 0
0 0.320312 0
0.128125 0.258594 0
0.0640625 0.257422 0
0 0.25625 0
0.5125 0.265625 0
0.448437 0.264453 0
0.384375 0.263281 0
0.509375 0.199219 0
0.445703 0.19834 0
0.382031 0.197461 0
0.50625 0.132812 0
0.442969 0.132227 0
0.379688 0.131641 0
0.384375 0.263281 0
0.320312 0.262109 0
0.25625 0.260937 0
0.382031 0.197461 0
0.318359 0.196582 0
0.254687 0.195703 0
[...]
POINT_DATA 34560
VECTORS v double
1.26009 -0.302703 0
1.24408 -0.27864 0
1.22869 -0.25629 0
1.22562 -0.283854 0
1.20775 -0.263052 0
1.1913 -0.242836 0
1.18733 -0.265718 0
1.16858 -0.247051 0
1.15086 -0.228729 0
1.22869 -0.25629 0
1.21599 -0.234487 0
1.20401 -0.213962 0
1.1913 -0.242836 0
1.17679 -0.223163 0
1.16378 -0.204223 0
1.15086 -0.228729 0
1.13521 -0.210794 0
1.12078 -0.193276 0
1.18733 -0.265718 0
1.16858 -0.247051 0
1.15086 -0.228729 0
1.14402 -0.243798 0
1.12404 -0.227612 0
1.10519 -0.211579 0
1.09364 -0.223319 0
1.07316 -0.209275 0
1.05375 -0.195175 0
1.15086 -0.228729 0
1.13521 -0.210794 0
1.12078 -0.193276 0
1.10519 -0.211579 0
1.08833 -0.195701 0
1.07277 -0.180054 0
1.05375 -0.195175 0
1.0363 -0.181051 0
1.0201 -0.166994 0
1.20401 -0.213962 0
1.19378 -0.193922 0
1.18433 -0.174727 0
1.16378 -0.204223 0
1.15195 -0.185648 0
1.14163 -0.16768 0
1.12078 -0.193276 0
1.10781 -0.176075 0
1.0962 -0.159233 0
1.18433 -0.174727 0
1.17575 -0.155918 0
1.16792 -0.137632 0
1.14163 -0.16768 0
1.13167 -0.149884 0
1.12313 -0.132555 0
1.0962 -0.159233 0
1.08518 -0.142577 0
1.07556 -0.126186 0
1.12078 -0.193276 0
1.10781 -0.176075 0
1.0962 -0.159233 0
1.07277 -0.180054 0
1.05872 -0.164498 0
1.04606 -0.149205 0
1.0201 -0.166994 0
1.00539 -0.15293 0
0.992066 -0.138992 0
1.0962 -0.159233 0
1.08518 -0.142577 0
1.07556 -0.126186 0
1.04606 -0.149205 0
1.03419 -0.133925 0
1.02373 -0.118783 0
0.992066 -0.138992 0
0.979608 -0.124977 0
0.968562 -0.111016 0
1.09364 -0.223319 0
1.07316 -0.209275 0
1.05375 -0.195175 0
1.03813 -0.202164 0
1.01746 -0.190088 0
0.997796 -0.177805 0
0.978519 -0.181946 0
0.957786 -0.171523 0
0.937943 -0.160821 0
1.05375 -0.195175 0
1.0363 -0.181051 0
1.0201 -0.166994 0
0.997796 -0.177805 0
0.979933 -0.16537 0
0.96326 -0.152903 0
0.937943 -0.160821 0
0.919791 -0.14991 0
0.902758 -0.138894 0
0.978519 -0.181946 0
0.957786 -0.171523 0
0.937943 -0.160821 0
0.914339 -0.160424 0
0.893573 -0.151645 0
0.87368 -0.142561 0
0.845523 -0.140134 0
0.825006 -0.132784 0
0.805289 -0.125114 0
0.937943 -0.160821 0
0.919791 -0.14991 0
0.902758 -0.138894 0
0.87368 -0.142561 0
0.855354 -0.133223 0
0.838125 -0.123728 0
0.805289 -0.125114 0
0.787012 -0.117165 0
0.76977 -0.109034 0
1.0201 -0.166994 0
1.00539 -0.15293 0
0.992066 -0.138992 0
0.96326 -0.152903 0
0.948052 -0.140337 0
0.934172 -0.127811 0
0.902758 -0.138894 0
0.887167 -0.127728 0
0.872859 -0.116542 0
0.992066 -0.138992 0
0.979608 -0.124977 0
0.968562 -0.111016 0
0.934172 -0.127811 0
0.921246 -0.115152 0
0.909712 -0.102477 0
0.872859 -0.116542 0
0.85957 -0.105186 0
0.847652 -0.0937649 0
0.902758 -0.138894 0
0.887167 -0.127728 0
0.872859 -0.116542 0
0.838125 -0.123728 0
0.82228 -0.114033 0
0.807699 -0.104269 0
0.76977 -0.109034 0
0.753839 -0.100684 0
0.739126 -0.0922395 0
0.872859 -0.116542 0
0.85957 -0.105186 0
0.847652 -0.0937649 0
0.807699 -0.104269 0
0.794156 -0.0942979 0
0.781979 -0.0842254 0
0.739126 -0.0922395 0
0.725454 -0.0835815 0
0.713121 -0.0748029 0
1.16792 -0.137632 0
1.16076 -0.119588 0
1.15435 -0.101834 0
1.12313 -0.132555 0
1.1149 -0.115298 0
1.10799 -0.0983214 0
1.07556 -0.126186 0
1.06647 -0.109855 0
1.05877 -0.0937065 0
1.15435 -0.101834 0
1.14816 -0.0842829 0
1.14266 -0.0669452 0
1.10799 -0.0983214 0
1.10097 -0.0813899 0
1.09514 -0.0647205 0
1.05877 -0.0937065 0
1.05111 -0.0776102 0
1.04475 -0.0616811 0
1.07556 -0.126186 0
1.06647 -0.109855 0
1.05877 -0.0937065 0
1.02373 -0.118783 0
1.01401 -0.103582 0
1.00567 -0.0885129 0
0.968562 -0.111016 0
0.958349 -0.096945 0
0.949549 -0.0829249 0
1.05877 -0.0937065 0
1.05111 -0.0776102 0
1.04475 -0.0616811 0
1.00567 -0.0885129 0
0.997624 -0.0734141 0
0.990867 -0.0583868 0
0.949549 -0.0829249 0
0.941168 -0.0688152 0
0.934123 -0.0547394 0
1.14266 -0.0669452 0
1.13752 -0.0498357 0
1.13303 -0.0329156 0
1.09514 -0.0647205 0
1.08948 -0.0481938 0
1.0849 -0.0318733 0
1.04475 -0.0616811 0
1.0387 -0.0458783 0
1.03387 -0.0302929 0
1.13303 -0.0329156 0
1.1287 -0.0163187 0
1.125 0 0
1.0849 -0.0318733 0
1.0803 -0.0157941 0
1.07666 0 0
1.03387 -0.0302929 0
1.02907 -0.0149924 0
1.02539 0 0
1.04475 -0.0616811 0
1.0387 -0.0458783 0
1.03387 -0.0302929 0
0.990867 -0.0583868 0
0.984631 -0.0434368 0
0.979621 -0.0287053 0
0.934123 -0.0547394 0
0.927691 -0.040723 0
0.922515 -0.0268892 0
1.03387 -0.0302929 0
1.02907 -0.0149924 0
1.02539 0 0
0.979621 -0.0287053 0
0.974847 -0.0142378 0
0.971191 0 0
0.922515 -0.0268892 0
0.917704 -0.0133121 0
0.914062 0 0
0.968562 -0.111016 0
0.958349 -0.096945 0
0.949549 -0.0829249 0
0.909712 -0.102477 0
0.899106 -0.0896316 0
0.889914 -0.0767699 0
0.847652 -0.0937649 0
0.836738 -0.0821402 0
0.827246 -0.0704515 0
0.949549 -0.0829249 0
0.941168 -0.0688152 0
0.934123 -0.0547394 0
0.889914 -0.0767699 0
0.881293 -0.0637735 0
0.874036 -0.0507605 0
0.827246 -0.0704515 0
0.818449 -0.0585909 0
0.811037 -0.046668 0
0.847652 -0.0937649 0
0.836738 -0.0821402 0
0.827246 -0.0704515 0
0.781979 -0.0842254 0
0.770849 -0.0739165 0
0.761153 -0.063501 0
0.713121 -0.0748029 0
0.70186 -0.0657816 0
0.692029 -0.0566287 0
0.827246 -0.0704515 0
0.818449 -0.0585909 0
0.811037 -0.046668 0
0.761153 -0.063501 0
0.752247 -0.0528697 0
0.744757 -0.0421334 0
0.692029 -0.0566287 0
0.683072 -0.0472389 0
0.675554 -0.0377084 0
0.934123 -0.0547394 0
0.927691 -0.040723 0
0.922515 -0.0268892 0
0.874036 -0.0507605 0
0.8675 -0.0377624 0
0.862257 -0.0249139 0
0.811037 -0.046668 0
0.804433 -0.0347293 0
0.799142 -0.0229101 0
0.922515 -0.0268892 0
0.917704 -0.0133121 0
0.914062 0 0
0.862257 -0.0249139 0
0.857528 -0.0123195 0
0.854004 0 0
0.799142 -0.0229101 0
0.794465 -0.0113314 0
0.791016 0 0
0.811037 -0.046668 0
0.804433 -0.0347293 0
0.799142 -0.0229101 0
0.744757 -0.0421334 0
0.738153 -0.0313378 0
0.732899 -0.020631 0
0.675554 -0.0377084 0
0.668984 -0.028083 0
0.663786 -0.0185074 0
0.799142 -0.0229101 0
0.794465 -0.0113314 0
0.791016 0 0
0.732899 -0.020631 0
0.728367 -0.0101645 0
0.725098 0 0
0.663786 -0.0185074 0
0.65938 -0.00914179 0
0.65625 0 0
0.845523 -0.140134 0
0.825006 -0.132784 0
0.805289 -0.125114 0
0.772936 -0.119283 0
0.752659 -0.113225 0
0.733143 -0.106866 0
0.696255 -0.0993385 0
0.676339 -0.0944661 0
0.657138 -0.0893234 0
0.805289 -0.125114 0
0.787012 -0.117165 0
0.76977 -0.109034 0
0.733143 -0.106866 0
0.714943 -0.100242 0
0.697744 -0.093441 0
0.657138 -0.0893234 0
0.639147 -0.0839344 0
0.622117 -0.0783813 0
0.696255 -0.0993385 0
0.676339 -0.0944661 0
0.657138 -0.0893234 0
0.615759 -0.0789227 0
0.596233 -0.0751349 0
0.577407 -0.0711262 0
0.530338 -0.0594295 0
0.511427 -0.0566631 0
0.493184 -0.0537256 0
0.657138 -0.0893234 0
0.639147 -0.0839344 0
0.622117 -0.0783813 0
0.577407 -0.0711262 0
0.559679 -0.0669093 0
0.542895 -0.0625557 0
0.493184 -0.0537256 0
0.475938 -0.0506179 0
0.459603 -0.0474075 0
0.76977 -0.109034 0
0.753839 -0.100684 0
0.739126 -0.0922395 0
0.697744 -0.093441 0
0.681781 -0.0864284 0
0.667011 -0.0793149 0
0.622117 -0.0783813 0
0.606247 -0.0726291 0
0.591534 -0.0667834 0
0.739126 -0.0922395 0
0.725454 -0.0835815 0
0.713121 -0.0748029 0
0.667011 -0.0793149 0
0.653268 -0.0719925 0
0.64085 -0.0645474 0
0.591534 -0.0667834 0
0.577826 -0.0607452 0
0.565416 -0.0545919 0
0.622117 -0.0783813 0
0.606247 -0.0726291 0
0.591534 -0.0667834 0
0.542895 -0.0625557 0
0.527184 -0.0580288 0
0.512612 -0.0534285 0
0.459603 -0.0474075 0
0.44425 -0.0440531 0
0.43 -0.040648 0
0.591534 -0.0667834 0
0.577826 -0.0607452 0
0.565416 -0.0545919 0
0.512612 -0.0534285 0
0.499006 -0.0486614 0
0.486679 -0.043797 0
0.43 -0.040648 0
0.416666 -0.0371063 0
0.404576 -0.0334919 0
0.530338 -0.0594295 0
0.511427 -0.0566631 0
0.493184 -0.0537256 0
0.439168 -0.0399563 0
0.421082 -0.0380907 0
0.403668 -0.0361157 0
0.334499 -0.0217235 0
0.318352 -0.0207543 0
0.302815 -0.0197289 0
0.493184 -0.0537256 0
0.475938 -0.0506179 0
0.459603 -0.0474075 0
0.403668 -0.0361157 0
0.38714 -0.034021 0
0.371516 -0.0318669 0
0.302815 -0.0197289 0
0.288036 -0.0186249 0
0.274086 -0.0174959 0
0.334499 -0.0217235 0
0.318352 -0.0207543 0
0.302815 -0.0197289 0
0.199467 -0.0067462 0
0.187925 -0.00640884 0
0.176927 -0.00607589 0
0 0 0
0 0 0
0 0 0
0.302815 -0.0197289 0
0.288036 -0.0186249 0
0.274086 -0.0174959 0
0.176927 -0.00607589 0
0.16639 -0.00570693 0
0.156563 -0.00535488 0
0 0 0
0 0 0
0 0 0
0.459603 -0.0474075 0
0.44425 -0.0440531 0
0.43 -0.040648 0
0.371516 -0.0318669 0
0.356767 -0.0296061 0
0.343097 -0.0273239 0
0.274086 -0.0174959 0
0.260878 -0.0162903 0
0.248649 -0.0150843 0
0.43 -0.040648 0
0.416666 -0.0371063 0
0.404576 -0.0334919 0
0.343097 -0.0273239 0
0.330268 -0.0249427 0
0.318644 -0.0225189 0
0.248649 -0.0150843 0
0.237157 -0.0138144 0
0.226747 -0.0125304 0
0.274086 -0.0174959 0
0.260878 -0.0162903 0
0.248649 -0.0150843 0
0.156563 -0.00535488 0
0.147184 -0.0049566 0
0.138613 -0.00458043 0
0 0 0
0 0 0
0 0 0
0.248649 -0.0150843 0
0.237157 -0.0138144 0
0.226747 -0.0125304 0
0.138613 -0.00458043 0
0.130498 -0.00416512 0
0.123253 -0.00376466 0
0 0 0
0 0 0
0 0 0
0.713121 -0.0748029 0
0.70186 -0.0657816 0
0.692029 -0.0566287 0
0.64085 -0.0645474 0
0.629512 -0.0568655 0
0.619606 -0.0490422 0
0.565416 -0.0545919 0
0.554079 -0.0482212 0
0.544161 -0.0417156 0
0.692029 -0.0566287 0
0.683072 -0.0472389 0
0.675554 -0.0377084 0
0.619606 -0.0490422 0
0.610636 -0.0409668 0
0.603133 -0.0327222 0
0.544161 -0.0417156 0
0.535224 -0.034963 0
0.527776 -0.0280243 0
0.565416 -0.0545919 0
0.554079 -0.0482212 0
0.544161 -0.0417156 0
0.486679 -0.043797 0
0.475398 -0.0387453 0
0.465525 -0.0335805 0
0.404576 -0.0334919 0
0.393483 -0.0297279 0
0.383764 -0.0258801 0
0.544161 -0.0417156 0
0.535224 -0.034963 0
0.527776 -0.0280243 0
0.465525 -0.0335805 0
0.456654 -0.0281923 0
0.449285 -0.0226196 0
0.383764 -0.0258801 0
0.375046 -0.021847 0
0.367819 -0.0176493 0
0.675554 -0.0377084 0
0.668984 -0.028083 0
0.663786 -0.0185074 0
0.603133 -0.0327222 0
0.596641 -0.0243424 0
0.591562 -0.015977 0
0.527776 -0.0280243 0
0.521394 -0.0209167 0
0.516457 -0.0137775 0
0.663786 -0.0185074 0
0.65938 -0.00914179 0
0.65625 0 0
0.591562 -0.015977 0
0.587361 -0.00782156 0
0.584473 0 0
0.516457 -0.0137775 0
0.512452 -0.00679639 0
0.509766 0 0
0.527776 -0.0280243 0
0.521394 -0.0209167 0
0.516457 -0.0137775 0
0.449285 -0.0226196 0
0.443031 -0.0168571 0
0.438267 -0.0110288 0
0.367819 -0.0176493 0
0.361739 -0.0132576 0
0.35718 -0.00875967 0
0.516457 -0.0137775 0
0.512452 -0.00679639 0
0.509766 0 0
0.438267 -0.0110288 0
0.434516 -0.00533858 0
0.432129 0 0
0.35718 -0.00875967 0
0.353687 -0.00432888 0
0.351562 0 0
0.404576 -0.0334919 0
0.393483 -0.0297279 0
0.383764 -0.0258801 0
0.318644 -0.0225189 0
0.307941 -0.0199865 0
0.298566 -0.0174085 0
0.226747 -0.0125304 0
0.217139 -0.0111795 0
0.208716 -0.00981483 0
0.383764 -0.0258801 0
0.375046 -0.021847 0
0.367819 -0.0176493 0
0.298566 -0.0174085 0
0.290147 -0.0147014 0
0.283175 -0.0118742 0
0.208716 -0.00981483 0
0.201145 -0.00838031 0
0.194865 -0.00688532 0
0.226747 -0.0125304 0
0.217139 -0.0111795 0
0.208716 -0.00981483 0
0.123253 -0.00376466 0
0.116504 -0.00332926 0
0.11069 -0.0029043 0
0 0 0
0 0 0
0 0 0
0.208716 -0.00981483 0
0.201145 -0.00838031 0
0.194865 -0.00688532 0
0.11069 -0.0029043 0
0.105401 -0.00244498 0
0.101083 -0.00197944 0
0 0 0
0 0 0
0 0 0
0.367819 -0.0176493 0
0.361739 -0.0132576 0
0.35718 -0.00875967 0
0.283175 -0.0118742 0
0.277336 -0.00888507 0
0.273031 -0.00578923 0
0.194865 -0.00688532 0
0.189627 -0.00528754 0
0.185811 -0.00358858 0
0.35718 -0.00875967 0
0.353687 -0.00432888 0
0.351562 0 0
0.273031 -0.00578923 0
0.269844 -0.00271557 0
0.268066 0 0
0.185811 -0.00358858 0
0.183069 -0.0018414 0
0.181641 0 0
0.194865 -0.00688532 0
0.189627 -0.00528754 0
0.185811 -0.00358858 0
0.101083 -0.00197944 0
0.0974283 -0.00148333 0
0.094898 -0.000947325 0
0 0 0
0 0 0
0 0 0
0.185811 -0.00358858 0
0.183069 -0.0018414 0
0.181641 0 0
0.094898 -0.000947325 0
0.093061 -0.000365893 0
0.0922852 0 0
0 0 0
0 0 0
0 0 0
1.74171 -0.305843 0
1.70936 -0.340542 0
1.67117 -0.370613 0
1.66346 -0.259543 0
1.63318 -0.292314 0
1.59956 -0.320162 0
1.5801 -0.223458 0
1.55655 -0.253805 0
1.52855 -0.280096 0
1.67117 -0.370613 0
1.63261 -0.392458 0
1.58976 -0.409213 0
1.59956 -0.320162 0
1.56423 -0.342218 0
1.52655 -0.358924 0
1.52855 -0.280096 0
1.49989 -0.301632 0
1.46793 -0.31852 0
1.5801 -0.223458 0
1.55655 -0.253805 0
1.52855 -0.280096 0
1.51537 -0.195968 0
1.49474 -0.22154 0
1.47067 -0.244101 0
1.43674 -0.166452 0
1.4178 -0.189337 0
1.39601 -0.209652 0
1.52855 -0.280096 0
1.49989 -0.301632 0
1.46793 -0.31852 0
1.47067 -0.244101 0
1.445 -0.26274 0
1.4166 -0.277822 0
1.39601 -0.209652 0
1.37269 -0.226877 0
1.34715 -0.241091 0
1.58976 -0.409213 0
1.55069 -0.4184 0
1.50897 -0.42228 0
1.52655 -0.358924 0
1.4911 -0.369835 0
1.45447 -0.376286 0
1.46793 -0.31852 0
1.43828 -0.330663 0
1.40652 -0.338403 0
1.50897 -0.42228 0
1.47273 -0.420929 0
1.43503 -0.415691 0
1.45447 -0.376286 0
1.42143 -0.378039 0
1.38805 -0.376124 0
1.40652 -0.338403 0
1.37783 -0.342015 0
1.34795 -0.34193 0
1.46793 -0.31852 0
1.43828 -0.330663 0
1.40652 -0.338403 0
1.4166 -0.277822 0
1.38914 -0.288899 0
1.3598 -0.296554 0
1.34715 -0.241091 0
1.32219 -0.252071 0
1.29581 -0.260153 0
1.40652 -0.338403 0
1.37783 -0.342015 0
1.34795 -0.34193 0
1.3598 -0.296554 0
1.33241 -0.300773 0
1.30394 -0.302008 0
1.29581 -0.260153 0
1.27082 -0.265293 0
1.24505 -0.267814 0
1.43674 -0.166452 0
1.4178 -0.189337 0
1.39601 -0.209652 0
1.35582 -0.145226 0
1.33943 -0.165388 0
1.32034 -0.18345 0
1.28118 -0.12382 0
1.26615 -0.141807 0
1.24864 -0.158052 0
1.39601 -0.209652 0
1.37269 -0.226877 0
1.34715 -0.241091 0
1.32034 -0.18345 0
1.29999 -0.198877 0
1.27744 -0.211775 0
1.24864 -0.158052 0
1.2299 -0.17204 0
1.20911 -0.183891 0
1.28118 -0.12382 0
1.26615 -0.141807 0
1.24864 -0.158052 0
1.20418 -0.104671 0
1.1904 -0.120255 0
1.17425 -0.134383 0
1.12381 -0.0861406 0
1.11097 -0.0997297 0
1.09588 -0.112163 0
1.24864 -0.158052 0
1.2299 -0.17204 0
1.20911 -0.183891 0
1.17425 -0.134383 0
1.1569 -0.146659 0
1.13758 -0.157176 0
1.09588 -0.112163 0
1.07973 -0.123081 0
1.06168 -0.132545 0
1.34715 -0.241091 0
1.32219 -0.252071 0
1.29581 -0.260153 0
1.27744 -0.211775 0
1.25533 -0.22189 0
1.23164 -0.229524 0
1.20911 -0.183891 0
1.18846 -0.193349 0
1.16632 -0.200681 0
1.29581 -0.260153 0
1.27082 -0.265293 0
1.24505 -0.267814 0
1.23164 -0.229524 0
1.20899 -0.234614 0
1.18536 -0.23739 0
1.16632 -0.200681 0
1.14491 -0.205792 0
1.12255 -0.208896 0
1.20911 -0.183891 0
1.18846 -0.193349 0
1.16632 -0.200681 0
1.13758 -0.157176 0
1.11827 -0.165733 0
1.0975 -0.172505 0
1.06168 -0.132545 0
1.04357 -0.140364 0
1.02403 -0.146683 0
1.16632 -0.200681 0
1.14491 -0.205792 0
1.12255 -0.208896 0
1.0975 -0.172505 0
1.07727 -0.177429 0
1.05608 -0.180632 0
1.02403 -0.146683 0
1.00487 -0.15142 0
0.984734 -0.154676 0
1.43503 -0.415691 0
1.40435 -0.407172 0
1.37338 -0.395284 0
1.38805 -0.376124 0
1.36006 -0.370605 0
1.33247 -0.362782 0
1.34795 -0.34193 0
1.32244 -0.33878 0
1.29658 -0.332915 0
1.37338 -0.395284 0
1.34838 -0.382109 0
1.32372 -0.367189 0
1.33247 -0.362782 0
1.30927 -0.352798 0
1.28685 -0.341099 0
1.29658 -0.332915 0
1.27421 -0.324884 0
1.25203 -0.314985 0
1.34795 -0.34193 0
1.32244 -0.33878 0
1.29658 -0.332915 0
1.30394 -0.302008 0
1.27889 -0.300523 0
1.25354 -0.296718 0
1.24505 -0.267814 0
1.222 -0.267881 0
1.19884 -0.265881 0
1.29658 -0.332915 0
1.27421 -0.324884 0
1.25203 -0.314985 0
1.25354 -0.296718 0
1.23128 -0.291036 0
1.2093 -0.28367 0
1.19884 -0.265881 0
1.17806 -0.262028 0
1.15755 -0.256541 0
1.32372 -0.367189 0
1.30481 -0.351913 0
1.28699 -0.335206 0
1.28685 -0.341099 0
1.269 -0.327978 0
1.25223 -0.313926 0
1.25203 -0.314985 0
1.23368 -0.303841 0
1.21615 -0.291606 0
1.28699 -0.335206 0
1.27314 -0.319018 0
1.26009 -0.302703 0
1.25223 -0.313926 0
1.23833 -0.299209 0
1.22562 -0.283854 0
1.21615 -0.291606 0
1.20118 -0.278825 0
1.18733 -0.265718 0
1.25203 -0.314985 0
1.23368 -0.303841 0
1.21615 -0.291606 0
1.2093 -0.28367 0
1.19095 -0.27508 0
1.17337 -0.265391 0
1.15755 -0.256541 0
1.13993 -0.249717 0
1.12298 -0.241766 0
1.21615 -0.291606 0
1.20118 -0.278825 0
1.18733 -0.265718 0
1.17337 -0.265391 0
1.15822 -0.254971 0
1.14402 -0.243798 0
1.12298 -0.241766 0
1.10788 -0.232921 0
1.09364 -0.223319 0
1.24505 -0.267814 0
1.222 -0.267881 0
1.19884 -0.265881 0
1.18536 -0.23739 0
1.16387 -0.238021 0
1.14199 -0.236807 0
1.12255 -0.208896 0
1.1019 -0.210108 0
1.08087 -0.209691 0
1.19884 -0.265881 0
1.17806 -0.262028 0
1.15755 -0.256541 0
1.14199 -0.236807 0
1.12203 -0.233968 0
1.10212 -0.229616 0
1.08087 -0.209691 0
1.06149 -0.207797 0
1.04215 -0.204551 0
1.12255 -0.208896 0
1.1019 -0.210108 0
1.08087 -0.209691 0
1.05608 -0.180632 0
1.03629 -0.182219 0
1.01607 -0.182357 0
0.984734 -0.154676 0
0.965708 -0.156517 0
0.94619 -0.157097 0
1.08087 -0.209691 0
1.06149 -0.207797 0
1.04215 -0.204551 0
1.01607 -0.182357 0
0.997203 -0.181193 0
0.97831 -0.178806 0
0.94619 -0.157097 0
0.927799 -0.156518 0
0.909317 -0.154848 0
1.15755 -0.256541 0
1.13993 -0.249717 0
1.12298 -0.241766 0
1.10212 -0.229616 0
1.08469 -0.224091 0
1.06777 -0.217565 0
1.04215 -0.204551 0
1.02497 -0.200212 0
1.00824 -0.194919 0
1.12298 -0.241766 0
1.10788 -0.232921 0
1.09364 -0.223319 0
1.06777 -0.217565 0
1.05257 -0.210266 0
1.03813 -0.202164 0
1.00824 -0.194919 0
0.993041 -0.188821 0
0.978519 -0.181946 0
1.04215 -0.204551 0
1.02497 -0.200212 0
1.00824 -0.194919 0
0.97831 -0.178806 0
0.961225 -0.175422 0
0.944498 -0.171143 0
0.909317 -0.154848 0
0.892392 -0.152276 0
0.87577 -0.148902 0
1.00824 -0.194919 0
0.993041 -0.188821 0
0.978519 -0.181946 0
0.944498 -0.171143 0
0.929114 -0.166135 0
0.914339 -0.160424 0
0.87577 -0.148902 0
0.860365 -0.144851 0
0.845523 -0.140134 0
1.12381 -0.0861406 0
1.11097 -0.0997297 0
1.09588 -0.112163 0
1.04349 -0.0709484 0
1.03138 -0.0824447 0
1.01715 -0.0930102 0
0.962242 -0.0552361 0
0.950454 -0.0649716 0
0.936619 -0.0739681 0
1.09588 -0.112163 0
1.07973 -0.123081 0
1.06168 -0.132545 0
1.01715 -0.0930102 0
1.00189 -0.102331 0
0.98481 -0.11045 0
0.936619 -0.0739681 0
0.921867 -0.0819511 0
0.905354 -0.0889587 0
0.962242 -0.0552361 0
0.950454 -0.0649716 0
0.936619 -0.0739681 0
0.878078 -0.0413136 0
0.866678 -0.0492523 0
0.853299 -0.05661 0
0.788431 -0.0275497 0
0.777492 -0.0338258 0
0.764549 -0.0396793 0
0.936619 -0.0739681 0
0.921867 -0.0819511 0
0.905354 -0.0889587 0
0.853299 -0.05661 0
0.839041 -0.0631603 0
0.823057 -0.0689369 0
0.764549 -0.0396793 0
0.750776 -0.0449195 0
0.735273 -0.0495711 0
1.06168 -0.132545 0
1.04357 -0.140364 0
1.02403 -0.146683 0
0.98481 -0.11045 0
0.96756 -0.117209 0
0.948898 -0.122726 0
0.905354 -0.0889587 0
0.888633 -0.094853 0
0.870538 -0.0997277 0
1.02403 -0.146683 0
1.00487 -0.15142 0
0.984734 -0.154676 0
0.948898 -0.122726 0
0.930482 -0.126931 0
0.911077 -0.129896 0
0.870538 -0.0997277 0
0.852626 -0.10352 0
0.833741 -0.106282 0
0.905354 -0.0889587 0
0.888633 -0.094853 0
0.870538 -0.0997277 0
0.823057 -0.0689369 0
0.806815 -0.0738254 0
0.789205 -0.0778964 0
0.735273 -0.0495711 0
0.719477 -0.0535414 0
0.702304 -0.0568822 0
0.870538 -0.0997277 0
0.852626 -0.10352 0
0.833741 -0.106282 0
0.789205 -0.0778964 0
0.771708 -0.0811005 0
0.753223 -0.0834683 0
0.702304 -0.0568822 0
0.685204 -0.0595566 0
0.667107 -0.0615777 0
0.788431 -0.0275497 0
0.777492 -0.0338258 0
0.764549 -0.0396793 0
0.68507 -0.0157305 0
0.675674 -0.0202733 0
0.664143 -0.0245344 0
0.545471 -0.00541778 0
0.539321 -0.00812787 0
0.530863 -0.010707 0
0.764549 -0.0396793 0
0.750776 -0.0449195 0
0.735273 -0.0495711 0
0.664143 -0.0245344 0
0.651682 -0.0283631 0
0.637364 -0.0317791 0
0.530863 -0.010707 0
0.521344 -0.0130543 0
0.509838 -0.0151765 0
0.545471 -0.00541778 0
0.539321 -0.00812787 0
0.530863 -0.010707 0
0.332415 -0.00126835 0
0.331 -0.0021773 0
0.327437 -0.00304856 0
0 0 0
0 0 0
0 0 0
0.530863 -0.010707 0
0.521344 -0.0130543 0
0.509838 -0.0151765 0
0.327437 -0.00304856 0
0.323081 -0.00383968 0
0.316793 -0.00454875 0
0 0 0
0 0 0
0 0 0
0.735273 -0.0495711 0
0.719477 -0.0535414 0
0.702304 -0.0568822 0
0.637364 -0.0317791 0
0.622638 -0.0347117 0
0.606427 -0.0371951 0
0.509838 -0.0151765 0
0.497736 -0.0170325 0
0.484042 -0.0186302 0
0.702304 -0.0568822 0
0.685204 -0.0595566 0
0.667107 -0.0615777 0