# vtk DataFile Version 3.0
#This file was generated by the deal.II library on 2025/1/7 at 23:33:24
ASCII
DATASET UNSTRUCTURED_GRID

POINTS 34560 double
1.1 1.1 0
1.03125 1.09531 0
0.9625 1.09063 0
1.09375 1.03125 0
1.02539 1.02686 0
0.957031 1.02246 0
1.0875 0.9625 0
1.01953 0.958398 0
0.951563 0.954297 0
0.9625 1.09063 0
0.89375 1.08594 0
0.825 1.08125 0
0.957031 1.02246 0
0.888672 1.01807 0
0.820312 1.01367 0
0.951563 0.954297 0
0.883594 0.950195 0
0.815625 0.946094 0
1.0875 0.9625 0
1.01953 0.958398 0
0.951563 0.954297 0
1.08125 0.89375 0
1.01367 0.889941 0
0.946094 0.886133 0
1.075 0.825 0
1.00781 0.821484 0
0.940625 0.817969 0
0.951563 0.954297 0
0.883594 0.950195 0
0.815625 0.946094 0
0.946094 0.886133 0
0.878516 0.882324 0
0.810938 0.878516 0
0.940625 0.817969 0
0.873438 0.814453 0
0.80625 0.810937 0
0.825 1.08125 0
0.75625 1.07656 0
0.6875 1.07187 0
0.820312 1.01367 0
0.751953 1.00928 0
0.683594 1.00488 0
0.815625 0.946094 0
0.747656 0.941992 0
0.679688 0.937891 0
0.6875 1.07187 0
0.61875 1.06719 0
0.55 1.0625 0
0.683594 1.00488 0
0.615234 1.00049 0
0.546875 0.996094 0
0.679688 0.937891 0
0.611719 0.933789 0
0.54375 0.929688 0
0.815625 0.946094 0
0.747656 0.941992 0
0.679688 0.937891 0
0.810938 0.878516 0
0.743359 0.874707 0
0.675781 0.870898 0
0.80625 0.810937 0
0.739063 0.807422 0
0.671875 0.803906 0
0.679688 0.937891 0
0.611719 0.933789 0
0.54375 0.929688 0
0.675781 0.870898 0
0.608203 0.86709 0
0.540625 0.863281 0
0.671875 0.803906 0
0.604688 0.800391 0
0.5375 0.796875 0
1.075 0.825 0
1.00781 0.821484 0
0.940625 0.817969 0
1.06875 0.75625 0
1.00195 0.753027 0
0.935156 0.749805 0
1.0625 0.6875 0
0.996094 0.68457 0
0.929688 0.681641 0
0.940625 0.817969 0
0.873438 0.814453 0
0.80625 0.810937 0
0.935156 0.749805 0
0.868359 0.746582 0
0.801563 0.743359 0
0.929688 0.681641 0
0.863281 0.678711 0
0.796875 0.675781 0
1.0625 0.6875 0
0.996094 0.68457 0
0.929688 0.681641 0
1.05625 0.61875 0
0.990234 0.616113 0
0.924219 0.613477 0
1.05 0.55 0
0.984375 0.547656 0
0.91875 0.545313 0
0.929688 0.681641 0
0.863281 0.678711 0
0.796875 0.675781 0
0.924219 0.613477 0
0.858203 0.61084 0
0.792188 0.608203 0
0.91875 0.545313 0
0.853125 0.542969 0
0.7875 0.540625 0
0.80625 0.810937 0
0.739063 0.807422 0
0.671875 0.803906 0
0.801563 0.743359 0
0.734766 0.740137 0
0.667969 0.736914 0
0.796875 0.675781 0
0.730469 0.672852 0
0.664062 0.669922 0
0.671875 0.803906 0
0.604688 0.800391 0
0.5375 0.796875 0
0.667969 0.736914 0
0.601172 0.733691 0
0.534375 0.730469 0
0.664062 0.669922 0
0.597656 0.666992 0
0.53125 0.664062 0
0.796875 0.675781 0
0.730469 0.672852 0
0.664062 0.669922 0
0.792188 0.608203 0
0.726172 0.605566 0
0.660156 0.60293 0
0.7875 0.540625 0
0.721875 0.538281 0
0.65625 0.535937 0
0.664062 0.669922 0
0.597656 0.666992 0
0.53125 0.664062 0
0.660156 0.60293 0
0.594141 0.600293 0
0.528125 0.597656 0
0.65625 0.535937 0
0.590625 0.533594 0
0.525 0.53125 0
0.55 1.0625 0
0.48125 1.05781 0
0.4125 1.05313 0
0.546875 0.996094 0
0.478516 0.991699 0
0.410156 0.987305 0
0.54375 0.929688 0
0.475781 0.925586 0
0.407813 0.921484 0
0.4125 1.05313 0
0.34375 1.04844 0
0.275 1.04375 0
0.410156 0.987305 0
0.341797 0.98291 0
0.273438 0.978516 0
0.407813 0.921484 0
0.339844 0.917383 0
0.271875 0.913281 0
0.54375 0.929688 0
0.475781 0.925586 0
0.407813 0.921484 0
0.540625 0.863281 0
0.473047 0.859473 0
0.405469 0.855664 0
0.5375 0.796875 0
0.470313 0.793359 0
0.403125 0.789844 0
0.407813 0.921484 0
0.339844 0.917383 0
0.271875 0.913281 0
0.405469 0.855664 0
0.337891 0.851855 0
0.270313 0.848047 0
0.403125 0.789844 0
0.335938 0.786328 0
0.26875 0.782813 0
0.275 1.04375 0
0.20625 1.03906 0
0.1375 1.03437 0
0.273438 0.978516 0
0.205078 0.974121 0
0.136719 0.969727 0
0.271875 0.913281 0
0.203906 0.90918 0
0.135938 0.905078 0
0.1375 1.03437 0
0.06875 1.02969 0
0 1.025 0
0.136719 0.969727 0
0.0683594 0.965332 0
0 0.960937 0
0.135938 0.905078 0
0.0679688 0.900977 0
0 0.896875 0
0.271875 0.913281 0
0.203906 0.90918 0
0.135938 0.905078 0
0.270313 0.848047 0
0.202734 0.844238 0
0.135156 0.84043 0
0.26875 0.782813 0
0.201563 0.779297 0
0.134375 0.775781 0
0.135938 0.905078 0
0.0679688 0.900977 0
0 0.896875 0
0.135156 0.84043 0
0.0675781 0.836621 0
0 0.832812 0
0.134375 0.775781 0
0.0671875 0.772266 0
0 0.76875 0
0.5375 0.796875 0
0.470313 0.793359 0
0.403125 0.789844 0
0.534375 0.730469 0
0.467578 0.727246 0
0.400781 0.724023 0
0.53125 0.664062 0
0.464844 0.661133 0
0.398438 0.658203 0
0.403125 0.789844 0
0.335938 0.786328 0
0.26875 0.782813 0
0.400781 0.724023 0
0.333984 0.720801 0
0.267188 0.717578 0
0.398438 0.658203 0
0.332031 0.655273 0
0.265625 0.652344 0
0.53125 0.664062 0
0.464844 0.661133 0
0.398438 0.658203 0
0.528125 0.597656 0
0.462109 0.59502 0
0.396094 0.592383 0
0.525 0.53125 0
0.459375 0.528906 0
0.39375 0.526563 0
0.398438 0.658203 0
0.332031 0.655273 0
0.265625 0.652344 0
0.396094 0.592383 0
0.330078 0.589746 0
0.264062 0.587109 0
0.39375 0.526563 0
0.328125 0.524219 0
0.2625 0.521875 0
0.26875 0.782813 0
0.201563 0.779297 0
0.134375 0.775781 0
0.267188 0.717578 0
0.200391 0.714355 0
0.133594 0.711133 0
0.265625 0.652344 0
0.199219 0.649414 0
0.132812 0.646484 0
0.134375 0.775781 0
0.0671875 0.772266 0
0 0.76875 0
0.133594 0.711133 0
0.0667969 0.70791 0
0 0.704687 0
0.132812 0.646484 0
0.0664062 0.643555 0
0 0.640625 0
0.265625 0.652344 0
0.199219 0.649414 0
0.132812 0.646484 0
0.264062 0.587109 0
0.198047 0.584473 0
0.132031 0.581836 0
0.2625 0.521875 0
0.196875 0.519531 0
0.13125 0.517187 0
0.132812 0.646484 0
0.0664062 0.643555 0
0 0.640625 0
0.132031 0.581836 0
0.0660156 0.579199 0
0 0.576562 0
0.13125 0.517187 0
0.065625 0.514844 0
0 0.5125 0
1.05 0.55 0
0.984375 0.547656 0
0.91875 0.545313 0
1.04375 0.48125 0
0.978516 0.479199 0
0.913281 0.477148 0
1.0375 0.4125 0
0.972656 0.410742 0
0.907813 0.408984 0
0.91875 0.545313 0
0.853125 0.542969 0
0.7875 0.540625 0
0.913281 0.477148 0
0.848047 0.475098 0
0.782813 0.473047 0
0.907813 0.408984 0
0.842969 0.407227 0
0.778125 0.405469 0
1.0375 0.4125 0
0.972656 0.410742 0
0.907813 0.408984 0
1.03125 0.34375 0
0.966797 0.342285 0
0.902344 0.34082 0
1.025 0.275 0
0.960937 0.273828 0
0.896875 0.272656 0
0.907813 0.408984 0
0.842969 0.407227 0
0.778125 0.405469 0
0.902344 0.34082 0
0.837891 0.339355 0
0.773438 0.337891 0
0.896875 0.272656 0
0.832812 0.271484 0
0.76875 0.270313 0
0.7875 0.540625 0
0.721875 0.538281 0
0.65625 0.535937 0
0.782813 0.473047 0
0.717578 0.470996 0
0.652344 0.468945 0
0.778125 0.405469 0
0.713281 0.403711 0
0.648438 0.401953 0
0.65625 0.535937 0
0.590625 0.533594 0
0.525 0.53125 0
0.652344 0.468945 0
0.587109 0.466895 0
0.521875 0.464844 0
0.648438 0.401953 0
0.583594 0.400195 0
0.51875 0.398438 0
0.778125 0.405469 0
0.713281 0.403711 0
0.648438 0.401953 0
0.773438 0.337891 0
0.708984 0.336426 0
0.644531 0.334961 0
0.76875 0.270313 0
0.704687 0.269141 0
0.640625 0.267969 0
0.648438 0.401953 0
0.583594 0.400195 0
0.51875 0.398438 0
0.644531 0.334961 0
0.580078 0.333496 0
0.515625 0.332031 0
0.640625 0.267969 0
0.576562 0.266797 0
0.5125 0.265625 0
1.025 0.275 0
0.960937 0.273828 0
0.896875 0.272656 0
1.01875 0.20625 0
0.955078 0.205371 0
0.891406 0.204492 0
1.0125 0.1375 0
0.949219 0.136914 0
0.885937 0.136328 0
0.896875 0.272656 0
0.832812 0.271484 0
0.76875 0.270313 0
0.891406 0.204492 0
0.827734 0.203613 0
0.764062 0.202734 0
0.885937 0.136328 0
0.822656 0.135742 0
0.759375 0.135156 0
1.0125 0.1375 0
0.949219 0.136914 0
0.885937 0.136328 0
1.00625 0.06875 0
0.943359 0.068457 0
0.880469 0.0681641 0
1 0 0
0.9375 0 0
0.875 0 0
0.885937 0.136328 0
0.822656 0.135742 0
0.759375 0.135156 0
0.880469 0.0681641 0
0.817578 0.0678711 0
0.754687 0.0675781 0
0.875 0 0
0.8125 0 0
0.75 0 0
0.76875 0.270313 0
0.704687 0.269141 0
0.640625 0.267969 0
0.764062 0.202734 0
0.700391 0.201855 0
0.636719 0.200977 0
0.759375 0.135156 0
0.696094 0.13457 0
0.632812 0.133984 0
0.640625 0.267969 0
0.576562 0.266797 0
0.5125 0.265625 0
0.636719 0.200977 0
0.573047 0.200098 0
0.509375 0.199219 0
0.632812 0.133984 0
0.569531 0.133398 0
0.50625 0.132812 0
0.759375 0.135156 0
0.696094 0.13457 0
0.632812 0.133984 0
0.754687 0.0675781 0
0.691797 0.0672852 0
0.628906 0.0669922 0
0.75 0 0
0.6875 0 0
0.625 0 0
0.632812 0.133984 0
0.569531 0.133398 0
0.50625 0.132812 0
0.628906 0.0669922 0
0.566016 0.0666992 0
0.503125 0.0664062 0
0.625 0 0
0.5625 0 0
0.5 0 0
0.525 0.53125 0
0.459375 0.528906 0
0.39375 0.526563 0
0.521875 0.464844 0
0.456641 0.462793 0
0.391406 0.460742 0
0.51875 0.398438 0
0.453906 0.39668 0
0.389063 0.394922 0
0.39375 0.526563 0
0.328125 0.524219 0
0.2625 0.521875 0
0.391406 0.460742 0
0.326172 0.458691 0
0.260938 0.456641 0
0.389063 0.394922 0
0.324219 0.393164 0
0.259375 0.391406 0
0.51875 0.398438 0
0.453906 0.39668 0
0.389063 0.394922 0
0.515625 0.332031 0
0.451172 0.330566 0
0.386719 0.329102 0
0.5125 0.265625 0
0.448437 0.264453 0
0.384375 0.263281 0
0.389063 0.394922 0
0.324219 0.393164 0
0.259375 0.391406 0
0.386719 0.329102 0
0.322266 0.327637 0
0.257812 0.326172 0
0.384375 0.263281 0
0.320312 0.262109 0
0.25625 0.260937 0
0.2625 0.521875 0
0.196875 0.519531 0
0.13125 0.517187 0
0.260938 0.456641 0
0.195703 0.45459 0
0.130469 0.452539 0
0.259375 0.391406 0
0.194531 0.389648 0
0.129688 0.387891 0
0.13125 0.517187 0
0.065625 0.514844 0
0 0.5125 0
0.130469 0.452539 0
0.0652344 0.450488 0
0 0.448437 0
0.129688 0.387891 0
0.0648438 0.386133 0
0 0.384375 0
0.259375 0.391406 0
0.194531 0.389648 0
0.129688 0.387891 0
0.257812 0.326172 0
0.193359 0.324707 0
0.128906 0.323242 0
0.25625 0.260937 0
0.192187 0.259766 0
0.128125 0.258594 0
0.129688 0.387891 0
0.0648438 0.386133 0
0 0.384375 0
0.128906 0.323242 0
0.0644531 0.321777 0
0 0.320312 0
0.128125 0.258594 0
0.0640625 0.257422 0
0 0.25625 0
0.5125 0.265625 0
0.448437 0.264453 0
0.384375 0.263281 0
0.509375 0.199219 0
0.445703 0.19834 0
0.382031 0.197461 0
0.50625 0.132812 0
0.442969 0.132227 0
0.379688 0.131641 0
0.384375 0.263281 0
0.320312 0.262109 0
0.25625 0.260937 0
0.382031 0.197461 0
0.318359 0.196582 0
0.254687 0.195703 0
[...]
POINT_DATA 34560
VECTORS v double
1.2695 -0.337559 0
1.25154 -0.307688 0
1.23427 -0.27906 0
1.23395 -0.31605 0
1.214 -0.289605 0
1.19588 -0.263667 0
1.19376 -0.295268 0
1.17299 -0.271425 0
1.15397 -0.247829 0
1.23427 -0.27906 0
1.22031 -0.251548 0
1.20713 -0.225226 0
1.19588 -0.263667 0
1.18009 -0.238513 0
1.16609 -0.214247 0
1.15397 -0.247829 0
1.13713 -0.224773 0
1.12209 -0.202294 0
1.19376 -0.295268 0
1.17299 -0.271425 0
1.15397 -0.247829 0
1.14877 -0.271245 0
1.12703 -0.250237 0
1.10703 -0.229272 0
1.09712 -0.248545 0
1.07492 -0.230097 0
1.05443 -0.211472 0
1.15397 -0.247829 0
1.13713 -0.224773 0
1.12209 -0.202294 0
1.10703 -0.229272 0
1.08919 -0.208595 0
1.07312 -0.188256 0
1.05443 -0.211472 0
1.03607 -0.19291 0
1.01947 -0.174489 0
1.20713 -0.225226 0
1.19608 -0.200232 0
1.18583 -0.176371 0
1.16609 -0.214247 0
1.15351 -0.190923 0
1.14257 -0.168587 0
1.12209 -0.202294 0
1.10843 -0.180572 0
1.09651 -0.159626 0
1.18583 -0.176371 0
1.17685 -0.153882 0
1.1686 -0.132465 0
1.14257 -0.168587 0
1.1323 -0.14726 0
1.12348 -0.127007 0
1.09651 -0.159626 0
1.08524 -0.139582 0
1.07557 -0.120433 0
1.12209 -0.202294 0
1.10843 -0.180572 0
1.09651 -0.159626 0
1.07312 -0.188256 0
1.05857 -0.168427 0
1.04573 -0.149213 0
1.01947 -0.174489 0
1.00439 -0.156409 0
0.991013 -0.138757 0
1.09651 -0.159626 0
1.08524 -0.139582 0
1.07557 -0.120433 0
1.04573 -0.149213 0
1.03375 -0.130694 0
1.02334 -0.112893 0
0.991013 -0.138757 0
0.978589 -0.12165 0
0.967733 -0.105133 0
1.09712 -0.248545 0
1.07492 -0.230097 0
1.05443 -0.211472 0
1.04017 -0.22535 0
1.01786 -0.209296 0
0.997193 -0.192895 0
0.979397 -0.203133 0
0.957074 -0.189174 0
0.936263 -0.174776 0
1.05443 -0.211472 0
1.03607 -0.19291 0
1.01947 -0.174489 0
0.997193 -0.192895 0
0.978536 -0.176386 0
0.961595 -0.159872 0
0.936263 -0.174776 0
0.917369 -0.160169 0
0.900125 -0.145443 0
0.979397 -0.203133 0
0.957074 -0.189174 0
0.936263 -0.174776 0
0.914455 -0.179559 0
0.892039 -0.16768 0
0.871116 -0.155338 0
0.845091 -0.157173 0
0.82285 -0.147185 0
0.802023 -0.13672 0
0.936263 -0.174776 0
0.917369 -0.160169 0
0.900125 -0.145443 0
0.871116 -0.155338 0
0.852015 -0.142714 0
0.834566 -0.129888 0
0.802023 -0.13672 0
0.782903 -0.125915 0
0.76539 -0.114855 0
1.01947 -0.174489 0
1.00439 -0.156409 0
0.991013 -0.138757 0
0.961595 -0.159872 0
0.946146 -0.143543 0
0.932369 -0.127497 0
0.900125 -0.145443 0
0.884381 -0.130784 0
0.870278 -0.116289 0
0.991013 -0.138757 0
0.978589 -0.12165 0
0.967733 -0.105133 0
0.932369 -0.127497 0
0.919618 -0.111875 0
0.908421 -0.0967199 0
0.870278 -0.116289 0
0.857289 -0.102104 0
0.84584 -0.0882811 0
0.900125 -0.145443 0
0.884381 -0.130784 0
0.870278 -0.116289 0
0.834566 -0.129888 0
0.818602 -0.117011 0
0.804296 -0.104182 0
0.76539 -0.114855 0
0.749321 -0.103657 0
0.734902 -0.0924206 0
0.870278 -0.116289 0
0.857289 -0.102104 0
0.84584 -0.0882811 0
0.804296 -0.104182 0
0.791156 -0.0915376 0
0.779578 -0.0791499 0
0.734902 -0.0924206 0
0.721694 -0.0812672 0
0.710064 -0.0702771 0
1.1686 -0.132465 0
1.1612 -0.112371 0
1.15447 -0.0932754 0
1.12348 -0.127007 0
1.11509 -0.107804 0
1.10794 -0.0895872 0
1.07557 -0.120433 0
1.06636 -0.102223 0
1.05857 -0.084938 0
1.15447 -0.0932754 0
1.14827 -0.0753804 0
1.14266 -0.0584066 0
1.10794 -0.0895872 0
1.10098 -0.0723755 0
1.09507 -0.0561409 0
1.05857 -0.084938 0
1.05097 -0.0686003 0
1.04462 -0.0531646 0
1.07557 -0.120433 0
1.06636 -0.102223 0
1.05857 -0.084938 0
1.02334 -0.112893 0
1.0136 -0.0958934 0
1.00527 -0.079734 0
0.967733 -0.105133 0
0.957627 -0.0893255 0
0.948923 -0.07425 0
1.05857 -0.084938 0
1.05097 -0.0686003 0
1.04462 -0.0531646 0
1.00527 -0.079734 0
0.997347 -0.0644292 0
0.99066 -0.0499169 0
0.948923 -0.07425 0
0.940754 -0.0599564 0
0.933827 -0.0464036 0
1.14266 -0.0584066 0
1.13752 -0.042507 0
1.1329 -0.0274362 0
1.09507 -0.0561409 0
1.08946 -0.040866 0
1.08475 -0.0264069 0
1.04462 -0.0531646 0
1.03862 -0.0386188 0
1.03371 -0.0249118 0
1.1329 -0.0274362 0
1.12871 -0.013323 0
1.125 0 0
1.08475 -0.0264069 0
1.08033 -0.0128058 0
1.07666 0 0
1.03371 -0.0249118 0
1.02908 -0.0120566 0
1.02539 0 0
1.04462 -0.0531646 0
1.03862 -0.0386188 0
1.03371 -0.0249118 0
0.99066 -0.0499169 0
0.984504 -0.0362385 0
0.979442 -0.0233826 0
0.933827 -0.0464036 0
0.927524 -0.0336558 0
0.922314 -0.0216805 0
1.03371 -0.0249118 0
1.02908 -0.0120566 0
1.02539 0 0
0.979442 -0.0233826 0
0.974843 -0.011337 0
0.971191 0 0
0.922314 -0.0216805 0
0.917702 -0.0104857 0
0.914062 0 0
0.967733 -0.105133 0
0.957627 -0.0893255 0
0.948923 -0.07425 0
0.908421 -0.0967199 0
0.898039 -0.0821701 0
0.889055 -0.0682602 0
0.84584 -0.0882811 0
0.83528 -0.0749793 0
0.826109 -0.0622341 0
0.948923 -0.07425 0
0.940754 -0.0599564 0
0.933827 -0.0464036 0
0.889055 -0.0682602 0
0.880727 -0.0550717 0
0.87365 -0.0425659 0
0.826109 -0.0622341 0
0.817702 -0.0501544 0
0.81054 -0.0387066 0
0.84584 -0.0882811 0
0.83528 -0.0749793 0
0.826109 -0.0622341 0
0.779578 -0.0791499 0
0.768936 -0.0671762 0
0.759693 -0.0556713 0
0.710064 -0.0702771 0
0.699416 -0.0596111 0
0.69018 -0.049331 0
0.826109 -0.0622341 0
0.817702 -0.0501544 0
0.81054 -0.0387066 0
0.759693 -0.0556713 0
0.751286 -0.044762 0
0.744133 -0.0344379 0
0.69018 -0.049331 0
0.681846 -0.0395898 0
0.674768 -0.030386 0
0.933827 -0.0464036 0
0.927524 -0.0336558 0
0.922314 -0.0216805 0
0.87365 -0.0425659 0
0.867285 -0.0308155 0
0.862032 -0.0198005 0
0.81054 -0.0387066 0
0.80416 -0.027982 0
0.798884 -0.0179546 0
0.922314 -0.0216805 0
0.917702 -0.0104857 0
0.914062 0 0
0.862032 -0.0198005 0
0.857522 -0.00954901 0
0.854004 0 0
0.798884 -0.0179546 0
0.794452 -0.00865339 0
0.791016 0 0
0.81054 -0.0387066 0
0.80416 -0.027982 0
0.798884 -0.0179546 0
0.744133 -0.0344379 0
0.737814 -0.0247978 0
0.732608 -0.0158244 0
0.674768 -0.030386 0
0.668559 -0.0218359 0
0.663452 -0.0139158 0
0.798884 -0.0179546 0
0.794452 -0.00865339 0
0.791016 0 0
0.732608 -0.0158244 0
0.72835 -0.00756705 0
0.725098 0 0
0.663452 -0.0139158 0
0.659352 -0.00666497 0
0.65625 0 0
0.845091 -0.157173 0
0.82285 -0.147185 0
0.802023 -0.13672 0
0.772292 -0.134196 0
0.750219 -0.125907 0
0.729487 -0.117172 0
0.695854 -0.112076 0
0.674029 -0.105373 0
0.653468 -0.0982775 0
0.802023 -0.13672 0
0.782903 -0.125915 0
0.76539 -0.114855 0
0.729487 -0.117172 0
0.710323 -0.108112 0
0.692726 -0.098796 0
0.653468 -0.0982775 0
0.634352 -0.0908751 0
0.61675 -0.0832363 0
0.695854 -0.112076 0
0.674029 -0.105373 0
0.653468 -0.0982775 0
0.616025 -0.0892858 0
0.594465 -0.0840397 0
0.574125 -0.0784659 0
0.53159 -0.0673983 0
0.510526 -0.0635302 0
0.490616 -0.0594088 0
0.653468 -0.0982775 0
0.634352 -0.0908751 0
0.61675 -0.0832363 0
0.574125 -0.0784659 0
0.555097 -0.0726314 0
0.537538 -0.0666026 0
0.490616 -0.0594088 0
0.471889 -0.0550707 0
0.454569 -0.0505865 0
0.76539 -0.114855 0
0.749321 -0.103657 0
0.734902 -0.0924206 0
0.692726 -0.098796 0
0.676533 -0.0893116 0
0.661994 -0.0797368 0
0.61675 -0.0832363 0
0.600495 -0.0754086 0
0.585879 -0.0674642 0
0.734902 -0.0924206 0
0.721694 -0.0812672 0
0.710064 -0.0702771 0
0.661994 -0.0797368 0
0.648714 -0.0701638 0
0.63705 -0.0606698 0
0.585879 -0.0674642 0
0.572549 -0.0594562 0
0.560869 -0.0514612 0
0.61675 -0.0832363 0
0.600495 -0.0754086 0
0.585879 -0.0674642 0
0.537538 -0.0666026 0
0.521246 -0.0604068 0
0.506567 -0.0541032 0
0.454569 -0.0505865 0
0.438426 -0.0459601 0
0.423845 -0.0412505 0
0.585879 -0.0674642 0
0.572549 -0.0594562 0
0.560869 -0.0514612 0
0.506567 -0.0541032 0
0.493166 -0.0477186 0
0.481436 -0.0413162 0
0.423845 -0.0412505 0
0.410498 -0.0364612 0
0.398804 -0.0316481 0
0.53159 -0.0673983 0
0.510526 -0.0635302 0
0.490616 -0.0594088 0
0.441612 -0.0453293 0
0.421212 -0.0426681 0
0.401945 -0.0398445 0
0.335944 -0.0244327 0
0.317516 -0.023004 0
0.30015 -0.0214982 0
0.490616 -0.0594088 0
0.471889 -0.0550707 0
0.454569 -0.0505865 0
0.401945 -0.0398445 0
0.383734 -0.0368706 0
0.366902 -0.0338136 0
0.30015 -0.0214982 0
0.283718 -0.0198936 0
0.268577 -0.0182586 0
0.335944 -0.0244327 0
0.317516 -0.023004 0
0.30015 -0.0214982 0
0.193801 -0.00751184 0
0.180971 -0.00701325 0
0.169121 -0.0065184 0
0 0 0
0 0 0
0 0 0
0.30015 -0.0214982 0
0.283718 -0.0198936 0
0.268577 -0.0182586 0
0.169121 -0.0065184 0
0.157855 -0.00597118 0
0.147702 -0.00544127 0
0 0 0
0 0 0
0 0 0
0.454569 -0.0505865 0
0.438426 -0.0459601 0
0.423845 -0.0412505 0
0.366902 -0.0338136 0
0.351155 -0.0306612 0
0.336935 -0.0274659 0
0.268577 -0.0182586 0
0.254414 -0.0165619 0
0.241666 -0.0148576 0
0.423845 -0.0412505 0
0.410498 -0.0364612 0
0.398804 -0.0316481 0
0.336935 -0.0274659 0
0.323875 -0.0242178 0
0.31243 -0.0209715 0
0.241666 -0.0148576 0
0.229963 -0.0131221 0
0.219733 -0.0114027 0
0.268577 -0.0182586 0
0.254414 -0.0165619 0
0.241666 -0.0148576 0
0.147702 -0.00544127 0
0.138176 -0.00487592 0
0.129803 -0.00433119 0
0 0 0
0 0 0
0 0 0
0.241666 -0.0148576 0
0.229963 -0.0131221 0
0.219733 -0.0114027 0
0.129803 -0.00433119 0
0.122103 -0.00377028 0
0.115526 -0.00323104 0
0 0 0
0 0 0
0 0 0
0.710064 -0.0702771 0
0.699416 -0.0596111 0
0.69018 -0.049331 0
0.63705 -0.0606698 0
0.626436 -0.0513972 0
0.61727 -0.0424165 0
0.560869 -0.0514612 0
0.550307 -0.0435904 0
0.541244 -0.035921 0
0.69018 -0.049331 0
0.681846 -0.0395898 0
0.674768 -0.030386 0
0.61727 -0.0424165 0
0.609068 -0.0338929 0
0.602138 -0.0258534 0
0.541244 -0.035921 0
0.533223 -0.028626 0
0.526502 -0.0217516 0
0.560869 -0.0514612 0
0.550307 -0.0435904 0
0.541244 -0.035921 0
0.481436 -0.0413162 0
0.470896 -0.0349668 0
0.461924 -0.0287288 0
0.398804 -0.0316481 0
0.388334 -0.0268365 0
0.379472 -0.0220676 0
0.541244 -0.035921 0
0.533223 -0.028626 0
0.526502 -0.0217516 0
0.461924 -0.0287288 0
0.454096 -0.0227533 0
0.447628 -0.017108 0
0.379472 -0.0220676 0
0.371853 -0.0174522 0
0.36567 -0.0130711 0
0.674768 -0.030386 0
0.668559 -0.0218359 0
0.663452 -0.0139158 0
0.602138 -0.0258534 0
0.596106 -0.0184313 0
0.591178 -0.0116138 0
0.526502 -0.0217516 0
0.520705 -0.0154556 0
0.516001 -0.00972159 0
0.663452 -0.0139158 0
0.659352 -0.00666497 0
0.65625 0 0
0.591178 -0.0116138 0
0.587326 -0.00546627 0
0.584473 0 0
0.516001 -0.00972159 0
0.512398 -0.00460378 0
0.509766 0 0
0.526502 -0.0217516 0
0.520705 -0.0154556 0
0.516001 -0.00972159 0
0.447628 -0.017108 0
0.442127 -0.0119684 0
0.437724 -0.00734873 0
0.36567 -0.0130711 0
0.360525 -0.00910229 0
0.356492 -0.00556658 0
0.516001 -0.00972159 0
0.512398 -0.00460378 0
0.509766 0 0
0.437724 -0.00734873 0
0.434446 -0.00334051 0
0.432129 0 0
0.356492 -0.00556658 0
0.353576 -0.00257373 0
0.351562 0 0
0.398804 -0.0316481 0
0.388334 -0.0268365 0
0.379472 -0.0220676 0
0.31243 -0.0209715 0
0.302196 -0.0177361 0
0.293563 -0.0145206 0
0.219733 -0.0114027 0
0.210619 -0.00969301 0
0.202963 -0.00799705 0
0.379472 -0.0220676 0
0.371853 -0.0174522 0
0.36567 -0.0130711 0
0.293563 -0.0145206 0
0.286226 -0.0113894 0
0.280377 -0.00840268 0
0.202963 -0.00799705 0
0.1965 -0.0063334 0
0.191424 -0.0047376 0
0.219733 -0.0114027 0
0.210619 -0.00969301 0
0.202963 -0.00799705 0
0.115526 -0.00323104 0
0.109675 -0.00269751 0
0.104875 -0.00217752 0
0 0 0
0 0 0
0 0 0
0.202963 -0.00799705 0
0.1965 -0.0063334 0
0.191424 -0.0047376 0
0.104875 -0.00217752 0
0.100836 -0.00167043 0
0.0977244 -0.00119418 0
0 0 0
0 0 0
0 0 0
0.36567 -0.0130711 0
0.360525 -0.00910229 0
0.356492 -0.00556658 0
0.280377 -0.00840268 0
0.275676 -0.00569813 0
0.27213 -0.00329395 0
0.191424 -0.0047376 0
0.187484 -0.00327149 0
0.184647 -0.00194029 0
0.356492 -0.00556658 0
0.353576 -0.00257373 0
0.351562 0 0
0.27213 -0.00329395 0
0.269674 -0.00133431 0
0.268066 0 0
0.184647 -0.00194029 0
0.182794 -0.000863662 0
0.181641 0 0
0.191424 -0.0047376 0
0.187484 -0.00327149 0
0.184647 -0.00194029 0
0.0977244 -0.00119418 0
0.0953859 -0.000776933 0
0.0937811 -0.000392655 0
0 0 0
0 0 0
0 0 0
0.184647 -0.00194029 0
0.182794 -0.000863662 0
0.181641 0 0
0.0937811 -0.000392655 0
0.0928173 -7.37753e-05 0
0.0922852 0 0
0 0 0
0 0 0
0 0 0
1.80383 -0.377941 0
1.76614 -0.412246 0
1.72161 -0.441153 0
1.73039 -0.325034 0
1.69378 -0.357654 0
1.6546 -0.385023 0
1.64457 -0.280484 0
1.61448 -0.311331 0
1.58095 -0.337581 0
1.72161 -0.441153 0
1.67905 -0.462177 0
1.63137 -0.477577 0
1.6546 -0.385023 0
1.61405 -0.406309 0
1.57182 -0.4221 0
1.58095 -0.337581 0
1.54663 -0.358913 0
1.51004 -0.375267 0
1.64457 -0.280484 0
1.61448 -0.311331 0
1.58095 -0.337581 0
1.57715 -0.247073 0
1.55057 -0.273537 0
1.52114 -0.296569 0
1.4999 -0.211129 0
1.47508 -0.235215 0
1.44791 -0.256275 0
1.58095 -0.337581 0
1.54663 -0.358913 0
1.51004 -0.375267 0
1.52114 -0.296569 0
1.49031 -0.315401 0
1.45735 -0.330325 0
1.44791 -0.256275 0
1.41928 -0.273902 0
1.38895 -0.288157 0
1.63137 -0.477577 0
1.58905 -0.485685 0
1.54336 -0.487985 0
1.57182 -0.4221 0
1.53182 -0.431909 0
1.49118 -0.437047 0
1.51004 -0.375267 0
1.47548 -0.386766 0
1.43978 -0.393562 0
1.54336 -0.487985 0
1.50444 -0.48523 0
1.46343 -0.478031 0
1.49118 -0.437047 0
1.45419 -0.437278 0
1.41732 -0.433617 0
1.43978 -0.393562 0
1.40692 -0.39608 0
1.37378 -0.39462 0
1.51004 -0.375267 0
1.47548 -0.386766 0
1.43978 -0.393562 0
1.45735 -0.330325 0
1.42534 -0.341006 0
1.39203 -0.347938 0
1.38895 -0.288157 0
1.35914 -0.298906 0
1.32843 -0.306444 0
1.43978 -0.393562 0
1.40692 -0.39608 0
1.37378 -0.39462 0
1.39203 -0.347938 0
1.36065 -0.351202 0
1.32874 -0.351138 0
1.32843 -0.306444 0
1.29907 -0.310799 0
1.2695 -0.31224 0
1.4999 -0.211129 0
1.47508 -0.235215 0
1.44791 -0.256275 0
1.4162 -0.183176 0
1.3942 -0.204934 0
1.36981 -0.224112 0
1.3394 -0.155861 0
1.31914 -0.17566 0
1.29666 -0.193263 0
1.44791 -0.256275 0
1.41928 -0.273902 0
1.38895 -0.288157 0
1.36981 -0.224112 0
1.34433 -0.240299 0
1.31704 -0.253572 0
1.29666 -0.193263 0
1.27307 -0.208233 0
1.24776 -0.220688 0
1.3394 -0.155861 0
1.31914 -0.17566 0
1.29666 -0.193263 0
1.26173 -0.13119 0
1.24299 -0.1487 0
1.22205 -0.164316 0
1.18002 -0.10734 0
1.16254 -0.122892 0
1.1429 -0.136882 0
1.29666 -0.193263 0
1.27307 -0.208233 0
1.24776 -0.220688 0
1.22205 -0.164316 0
1.19996 -0.177712 0
1.17615 -0.188984 0
1.1429 -0.136882 0
1.12219 -0.149015 0
1.09979 -0.159355 0
1.38895 -0.288157 0
1.35914 -0.298906 0
1.32843 -0.306444 0
1.31704 -0.253572 0
1.29024 -0.263779 0
1.26231 -0.27117 0
1.24776 -0.220688 0
1.22261 -0.23044 0
1.19634 -0.23773 0
1.32843 -0.306444 0
1.29907 -0.310799 0
1.2695 -0.31224 0
1.26231 -0.27117 0
1.2355 -0.275763 0
1.20817 -0.277723 0
1.19634 -0.23773 0
1.17083 -0.242521 0
1.14477 -0.244991 0
1.24776 -0.220688 0
1.22261 -0.23044 0
1.19634 -0.23773 0
1.17615 -0.188984 0
1.15234 -0.197992 0
1.12739 -0.20489 0
1.09979 -0.159355 0
1.0773 -0.167766 0
1.05366 -0.174374 0
1.19634 -0.23773 0
1.17083 -0.242521 0
1.14477 -0.244991 0
1.12739 -0.20489 0
1.10302 -0.209678 0
1.07807 -0.212451 0
1.05366 -0.174374 0
1.03044 -0.17915 0
1.00659 -0.182171 0
1.46343 -0.478031 0
1.43016 -0.467456 0
1.3961 -0.452937 0
1.41732 -0.433617 0
1.38572 -0.426106 0
1.35493 -0.415921 0
1.37378 -0.39462 0
1.34467 -0.38982 0
1.31602 -0.381943 0
1.3961 -0.452937 0
1.36876 -0.436989 0
1.34143 -0.418684 0
1.35493 -0.415921 0
1.32872 -0.403268 0
1.30365 -0.388541 0
1.31602 -0.381943 0
1.29067 -0.371547 0
1.26622 -0.358918 0
1.37378 -0.39462 0
1.34467 -0.38982 0
1.31602 -0.381943 0
1.32874 -0.351138 0
1.30012 -0.348087 0
1.2717 -0.342344 0
1.2695 -0.31224 0
1.24257 -0.310981 0
1.21611 -0.30734 0
1.31602 -0.381943 0
1.29067 -0.371547 0
1.26622 -0.358918 0
1.2717 -0.342344 0
1.24639 -0.33444 0
1.22188 -0.324471 0
1.21611 -0.30734 0
1.19211 -0.301572 0
1.16898 -0.293836 0
1.34143 -0.418684 0
1.3203 -0.399791 0
1.30009 -0.379004 0
1.30365 -0.388541 0
1.28321 -0.372106 0
1.26416 -0.354329 0
1.26622 -0.358918 0
1.24534 -0.344652 0
1.22589 -0.328945 0
1.30009 -0.379004 0
1.28441 -0.358583 0
1.2695 -0.337559 0
1.26416 -0.354329 0
1.24832 -0.335653 0
1.23395 -0.31605 0
1.22589 -0.328945 0
1.20899 -0.312403 0
1.19376 -0.295268 0
1.26622 -0.358918 0
1.24534 -0.344652 0
1.22589 -0.328945 0
1.22188 -0.324471 0
1.20097 -0.312992 0
1.18135 -0.300064 0
1.16898 -0.293836 0
1.14875 -0.284461 0
1.12972 -0.273613 0
1.22589 -0.328945 0
1.20899 -0.312403 0
1.19376 -0.295268 0
1.18135 -0.300064 0
1.16433 -0.286172 0
1.14877 -0.271245 0
1.12972 -0.273613 0
1.11273 -0.261603 0
1.09712 -0.248545 0
1.2695 -0.31224 0
1.24257 -0.310981 0
1.21611 -0.30734 0
1.20817 -0.277723 0
1.18297 -0.277272 0
1.15785 -0.274649 0
1.14477 -0.244991 0
1.12038 -0.245311 0
1.09602 -0.243693 0
1.21611 -0.30734 0
1.19211 -0.301572 0
1.16898 -0.293836 0
1.15785 -0.274649 0
1.13474 -0.270123 0
1.1122 -0.263751 0
1.09602 -0.243693 0
1.07342 -0.240348 0
1.05133 -0.235353 0
1.14477 -0.244991 0
1.12038 -0.245311 0
1.09602 -0.243693 0
1.07807 -0.212451 0
1.0545 -0.213366 0
1.03091 -0.21254 0
1.00659 -0.182171 0
0.983827 -0.183544 0
0.960938 -0.183382 0
1.09602 -0.243693 0
1.07342 -0.240348 0
1.05133 -0.235353 0
1.03091 -0.21254 0
1.00879 -0.210175 0
0.987088 -0.206313 0
0.960938 -0.183382 0
0.93927 -0.18184 0
0.917926 -0.178955 0
1.16898 -0.293836 0
1.14875 -0.284461 0
1.12972 -0.273613 0
1.1122 -0.263751 0
1.09214 -0.255923 0
1.07309 -0.246767 0
1.05133 -0.235353 0
1.03145 -0.229019 0
1.01251 -0.221432 0
1.12972 -0.273613 0
1.11273 -0.261603 0
1.09712 -0.248545 0
1.07309 -0.246767 0
1.05599 -0.236596 0
1.04017 -0.22535 0
1.01251 -0.221432 0
0.995357 -0.212804 0
0.979397 -0.203133 0
1.05133 -0.235353 0
1.03145 -0.229019 0
1.01251 -0.221432 0
0.987088 -0.206313 0
0.967244 -0.201217 0
0.948222 -0.194944 0
0.917926 -0.178955 0
0.898174 -0.174955 0
0.879166 -0.169902 0
1.01251 -0.221432 0
0.995357 -0.212804 0
0.979397 -0.203133 0
0.948222 -0.194944 0
0.930779 -0.187722 0
0.914455 -0.179559 0
0.879166 -0.169902 0
0.861598 -0.163979 0
0.845091 -0.157173 0
1.18002 -0.10734 0
1.16254 -0.122892 0
1.1429 -0.136882 0
1.09846 -0.0876675 0
1.08207 -0.101112 0
1.0636 -0.113256 0
1.0164 -0.0677481 0
1.00081 -0.0793192 0
0.983122 -0.0898274 0
1.1429 -0.136882 0
1.12219 -0.149015 0
1.09979 -0.159355 0
1.0636 -0.113256 0
1.04402 -0.123832 0
1.02278 -0.132895 0
0.983122 -0.0898274 0
0.964335 -0.099037 0
0.94387 -0.106995 0
1.0164 -0.0677481 0
1.00081 -0.0793192 0
0.983122 -0.0898274 0
0.930902 -0.0503426 0
0.916268 -0.0599011 0
0.899534 -0.0686061 0
0.839368 -0.0336193 0
0.825819 -0.0412154 0
0.810066 -0.0481781 0
0.983122 -0.0898274 0
0.964335 -0.099037 0
0.94387 -0.106995 0
0.899534 -0.0686061 0
0.881643 -0.0762676 0
0.862039 -0.0829246 0
0.810066 -0.0481781 0
0.793131 -0.0543501 0
0.774405 -0.0597508 0
1.09979 -0.159355 0
1.0773 -0.167766 0
1.05366 -0.174374 0
1.02278 -0.132895 0
1.00129 -0.140323 0
0.978623 -0.146224 0
0.94387 -0.106995 0
0.923061 -0.113596 0
0.90105 -0.118925 0
1.05366 -0.174374 0
1.03044 -0.17915 0
1.00659 -0.182171 0
0.978623 -0.146224 0
0.956196 -0.150572 0
0.933083 -0.153428 0
0.90105 -0.118925 0
0.879178 -0.122959 0
0.856591 -0.12574 0
0.94387 -0.106995 0
0.923061 -0.113596 0
0.90105 -0.118925 0
0.862039 -0.0829246 0
0.841977 -0.0884907 0
0.820658 -0.0930247 0
0.774405 -0.0597508 0
0.755133 -0.0643145 0
0.734531 -0.0680786 0
0.90105 -0.118925 0
0.879178 -0.122959 0
0.856591 -0.12574 0
0.820658 -0.0930247 0
0.799346 -0.0965082 0
0.777249 -0.0989686 0
0.734531 -0.0680786 0
0.713834 -0.0710325 0
0.692287 -0.0731842 0
0.839368 -0.0336193 0
0.825819 -0.0412154 0
0.810066 -0.0481781 0
0.733639 -0.01986 0
0.722307 -0.0253295 0
0.708578 -0.0303699 0
0.588332 -0.00776828 0
0.580702 -0.010969 0
0.57052 -0.0139564 0
0.810066 -0.0481781 0
0.793131 -0.0543501 0
0.774405 -0.0597508 0
0.708578 -0.0303699 0
0.693473 -0.0348644 0
0.676393 -0.0388138 0
0.57052 -0.0139564 0
0.558791 -0.0166579 0
0.544945 -0.0190577 0
0.588332 -0.00776828 0
0.580702 -0.010969 0
0.57052 -0.0139564 0
0.35911 -0.0022538 0
0.356025 -0.00329773 0
0.350783 -0.00426623 0
0 0 0
0 0 0
0 0 0
0.57052 -0.0139564 0
0.558791 -0.0166579 0
0.544945 -0.0190577 0
0.350783 -0.00426623 0
0.344362 -0.00515564 0
0.336052 -0.00592938 0
0 0 0
0 0 0
0 0 0
0.774405 -0.0597508 0
0.755133 -0.0643145 0
0.734531 -0.0680786 0
0.676393 -0.0388138 0
0.658574 -0.042174 0
0.639266 -0.0449625 0
0.544945 -0.0190577 0
0.530138 -0.0211381 0
0.51371 -0.0228893 0
0.734531 -0.0680786 0
0.713834 -0.0710325 0
0.692287 -0.0731842 0
0.639266 -0.0449625 0
0.619696 -0.047177 0