# vtk DataFile Version 3.0
#This file was generated by the deal.II library on 2025/1/7 at 22:50:43
ASCII
DATASET UNSTRUCTURED_GRID

POINTS 34560 double
1.1 1.1 0
1.03125 1.09531 0
0.9625 1.09063 0
1.09375 1.03125 0
1.02539 1.02686 0
0.957031 1.02246 0
1.0875 0.9625 0
1.01953 0.958398 0
0.951563 0.954297 0
0.9625 1.09063 0
0.89375 1.08594 0
0.825 1.08125 0
0.957031 1.02246 0
0.888672 1.01807 0
0.820312 1.01367 0
0.951563 0.954297 0
0.883594 0.950195 0
0.815625 0.946094 0
1.0875 0.9625 0
1.01953 0.958398 0
0.951563 0.954297 0
1.08125 0.89375 0
1.01367 0.889941 0
0.946094 0.886133 0
1.075 0.825 0
1.00781 0.821484 0
0.940625 0.817969 0
0.951563 0.954297 0
0.883594 0.950195 0
0.815625 0.946094 0
0.946094 0.886133 0
0.878516 0.882324 0
0.810938 0.878516 0
0.940625 0.817969 0
0.873438 0.814453 0
0.80625 0.810937 0
0.825 1.08125 0
0.75625 1.07656 0
0.6875 1.07187 0
0.820312 1.01367 0
0.751953 1.00928 0
0.683594 1.00488 0
0.815625 0.946094 0
0.747656 0.941992 0
0.679688 0.937891 0
0.6875 1.07187 0
0.61875 1.06719 0
0.55 1.0625 0
0.683594 1.00488 0
0.615234 1.00049 0
0.546875 0.996094 0
0.679688 0.937891 0
0.611719 0.933789 0
0.54375 0.929688 0
0.815625 0.946094 0
0.747656 0.941992 0
0.679688 0.937891 0
0.810938 0.878516 0
0.743359 0.874707 0
0.675781 0.870898 0
0.80625 0.810937 0
0.739063 0.807422 0
0.671875 0.803906 0
0.679688 0.937891 0
0.611719 0.933789 0
0.54375 0.929688 0
0.675781 0.870898 0
0.608203 0.86709 0
0.540625 0.863281 0
0.671875 0.803906 0
0.604688 0.800391 0
0.5375 0.796875 0
1.075 0.825 0
1.00781 0.821484 0
0.940625 0.817969 0
1.06875 0.75625 0
1.00195 0.753027 0
0.935156 0.749805 0
1.0625 0.6875 0
0.996094 0.68457 0
0.929688 0.681641 0
0.940625 0.817969 0
0.873438 0.814453 0
0.80625 0.810937 0
0.935156 0.749805 0
0.868359 0.746582 0
0.801563 0.743359 0
0.929688 0.681641 0
0.863281 0.678711 0
0.796875 0.675781 0
1.0625 0.6875 0
0.996094 0.68457 0
0.929688 0.681641 0
1.05625 0.61875 0
0.990234 0.616113 0
0.924219 0.613477 0
1.05 0.55 0
0.984375 0.547656 0
0.91875 0.545313 0
0.929688 0.681641 0
0.863281 0.678711 0
0.796875 0.675781 0
0.924219 0.613477 0
0.858203 0.61084 0
0.792188 0.608203 0
0.91875 0.545313 0
0.853125 0.542969 0
0.7875 0.540625 0
0.80625 0.810937 0
0.739063 0.807422 0
0.671875 0.803906 0
0.801563 0.743359 0
0.734766 0.740137 0
0.667969 0.736914 0
0.796875 0.675781 0
0.730469 0.672852 0
0.664062 0.669922 0
0.671875 0.803906 0
0.604688 0.800391 0
0.5375 0.796875 0
0.667969 0.736914 0
0.601172 0.733691 0
0.534375 0.730469 0
0.664062 0.669922 0
0.597656 0.666992 0
0.53125 0.664062 0
0.796875 0.675781 0
0.730469 0.672852 0
0.664062 0.669922 0
0.792188 0.608203 0
0.726172 0.605566 0
0.660156 0.60293 0
0.7875 0.540625 0
0.721875 0.538281 0
0.65625 0.535937 0
0.664062 0.669922 0
0.597656 0.666992 0
0.53125 0.664062 0
0.660156 0.60293 0
0.594141 0.600293 0
0.528125 0.597656 0
0.65625 0.535937 0
0.590625 0.533594 0
0.525 0.53125 0
0.55 1.0625 0
0.48125 1.05781 0
0.4125 1.05313 0
0.546875 0.996094 0
0.478516 0.991699 0
0.410156 0.987305 0
0.54375 0.929688 0
0.475781 0.925586 0
0.407813 0.921484 0
0.4125 1.05313 0
0.34375 1.04844 0
0.275 1.04375 0
0.410156 0.987305 0
0.341797 0.98291 0
0.273438 0.978516 0
0.407813 0.921484 0
0.339844 0.917383 0
0.271875 0.913281 0
0.54375 0.929688 0
0.475781 0.925586 0
0.407813 0.921484 0
0.540625 0.863281 0
0.473047 0.859473 0
0.405469 0.855664 0
0.5375 0.796875 0
0.470313 0.793359 0
0.403125 0.789844 0
0.407813 0.921484 0
0.339844 0.917383 0
0.271875 0.913281 0
0.405469 0.855664 0
0.337891 0.851855 0
0.270313 0.848047 0
0.403125 0.789844 0
0.335938 0.786328 0
0.26875 0.782813 0
0.275 1.04375 0
0.20625 1.03906 0
0.1375 1.03437 0
0.273438 0.978516 0
0.205078 0.974121 0
0.136719 0.969727 0
0.271875 0.913281 0
0.203906 0.90918 0
0.135938 0.905078 0
0.1375 1.03437 0
0.06875 1.02969 0
0 1.025 0
0.136719 0.969727 0
0.0683594 0.965332 0
0 0.960937 0
0.135938 0.905078 0
0.0679688 0.900977 0
0 0.896875 0
0.271875 0.913281 0
0.203906 0.90918 0
0.135938 0.905078 0
0.270313 0.848047 0
0.202734 0.844238 0
0.135156 0.84043 0
0.26875 0.782813 0
0.201563 0.779297 0
0.134375 0.775781 0
0.135938 0.905078 0
0.0679688 0.900977 0
0 0.896875 0
0.135156 0.84043 0
0.0675781 0.836621 0
0 0.832812 0
0.134375 0.775781 0
0.0671875 0.772266 0
0 0.76875 0
0.5375 0.796875 0
0.470313 0.793359 0
0.403125 0.789844 0
0.534375 0.730469 0
0.467578 0.727246 0
0.400781 0.724023 0
0.53125 0.664062 0
0.464844 0.661133 0
0.398438 0.658203 0
0.403125 0.789844 0
0.335938 0.786328 0
0.26875 0.782813 0
0.400781 0.724023 0
0.333984 0.720801 0
0.267188 0.717578 0
0.398438 0.658203 0
0.332031 0.655273 0
0.265625 0.652344 0
0.53125 0.664062 0
0.464844 0.661133 0
0.398438 0.658203 0
0.528125 0.597656 0
0.462109 0.59502 0
0.396094 0.592383 0
0.525 0.53125 0
0.459375 0.528906 0
0.39375 0.526563 0
0.398438 0.658203 0
0.332031 0.655273 0
0.265625 0.652344 0
0.396094 0.592383 0
0.330078 0.589746 0
0.264062 0.587109 0
0.39375 0.526563 0
0.328125 0.524219 0
0.2625 0.521875 0
0.26875 0.782813 0
0.201563 0.779297 0
0.134375 0.775781 0
0.267188 0.717578 0
0.200391 0.714355 0
0.133594 0.711133 0
0.265625 0.652344 0
0.199219 0.649414 0
0.132812 0.646484 0
0.134375 0.775781 0
0.0671875 0.772266 0
0 0.76875 0
0.133594 0.711133 0
0.0667969 0.70791 0
0 0.704687 0
0.132812 0.646484 0
0.0664062 0.643555 0
0 0.640625 0
0.265625 0.652344 0
0.199219 0.649414 0
0.132812 0.646484 0
0.264062 0.587109 0
0.198047 0.584473 0
0.132031 0.581836 0
0.2625 0.521875 0
0.196875 0.519531 0
0.13125 0.517187 0
0.132812 0.646484 0
0.0664062 0.643555 0
0 0.640625 0
0.132031 0.581836 0
0.0660156 0.579199 0
0 0.576562 0
0.13125 0.517187 0
0.065625 0.514844 0
0 0.5125 0
1.05 0.55 0
0.984375 0.547656 0
0.91875 0.545313 0
1.04375 0.48125 0
0.978516 0.479199 0
0.913281 0.477148 0
1.0375 0.4125 0
0.972656 0.410742 0
0.907813 0.408984 0
0.91875 0.545313 0
0.853125 0.542969 0
0.7875 0.540625 0
0.913281 0.477148 0
0.848047 0.475098 0
0.782813 0.473047 0
0.907813 0.408984 0
0.842969 0.407227 0
0.778125 0.405469 0
1.0375 0.4125 0
0.972656 0.410742 0
0.907813 0.408984 0
1.03125 0.34375 0
0.966797 0.342285 0
0.902344 0.34082 0
1.025 0.275 0
0.960937 0.273828 0
0.896875 0.272656 0
0.907813 0.408984 0
0.842969 0.407227 0
0.778125 0.405469 0
0.902344 0.34082 0
0.837891 0.339355 0
0.773438 0.337891 0
0.896875 0.272656 0
0.832812 0.271484 0
0.76875 0.270313 0
0.7875 0.540625 0
0.721875 0.538281 0
0.65625 0.535937 0
0.782813 0.473047 0
0.717578 0.470996 0
0.652344 0.468945 0
0.778125 0.405469 0
0.713281 0.403711 0
0.648438 0.401953 0
0.65625 0.535937 0
0.590625 0.533594 0
0.525 0.53125 0
0.652344 0.468945 0
0.587109 0.466895 0
0.521875 0.464844 0
0.648438 0.401953 0
0.583594 0.400195 0
0.51875 0.398438 0
0.778125 0.405469 0
0.713281 0.403711 0
0.648438 0.401953 0
0.773438 0.337891 0
0.708984 0.336426 0
0.644531 0.334961 0
0.76875 0.270313 0
0.704687 0.269141 0
0.640625 0.267969 0
0.648438 0.401953 0
0.583594 0.400195 0
0.51875 0.398438 0
0.644531 0.334961 0
0.580078 0.333496 0
0.515625 0.332031 0
0.640625 0.267969 0
0.576562 0.266797 0
0.5125 0.265625 0
1.025 0.275 0
0.960937 0.273828 0
0.896875 0.272656 0
1.01875 0.20625 0
0.955078 0.205371 0
0.891406 0.204492 0
1.0125 0.1375 0
0.949219 0.136914 0
0.885937 0.136328 0
0.896875 0.272656 0
0.832812 0.271484 0
0.76875 0.270313 0
0.891406 0.204492 0
0.827734 0.203613 0
0.764062 0.202734 0
0.885937 0.136328 0
0.822656 0.135742 0
0.759375 0.135156 0
1.0125 0.1375 0
0.949219 0.136914 0
0.885937 0.136328 0
1.00625 0.06875 0
0.943359 0.068457 0
0.880469 0.0681641 0
1 0 0
0.9375 0 0
0.875 0 0
0.885937 0.136328 0
0.822656 0.135742 0
0.759375 0.135156 0
0.880469 0.0681641 0
0.817578 0.0678711 0
0.754687 0.0675781 0
0.875 0 0
0.8125 0 0
0.75 0 0
0.76875 0.270313 0
0.704687 0.269141 0
0.640625 0.267969 0
0.764062 0.202734 0
0.700391 0.201855 0
0.636719 0.200977 0
0.759375 0.135156 0
0.696094 0.13457 0
0.632812 0.133984 0
0.640625 0.267969 0
0.576562 0.266797 0
0.5125 0.265625 0
0.636719 0.200977 0
0.573047 0.200098 0
0.509375 0.199219 0
0.632812 0.133984 0
0.569531 0.133398 0
0.50625 0.132812 0
0.759375 0.135156 0
0.696094 0.13457 0
0.632812 0.133984 0
0.754687 0.0675781 0
0.691797 0.0672852 0
0.628906 0.0669922 0
0.75 0 0
0.6875 0 0
0.625 0 0
0.632812 0.133984 0
0.569531 0.133398 0
0.50625 0.132812 0
0.628906 0.0669922 0
0.566016 0.0666992 0
0.503125 0.0664062 0
0.625 0 0
0.5625 0 0
0.5 0 0
0.525 0.53125 0
0.459375 0.528906 0
0.39375 0.526563 0
0.521875 0.464844 0
0.456641 0.462793 0
0.391406 0.460742 0
0.51875 0.398438 0
0.453906 0.39668 0
0.389063 0.394922 0
0.39375 0.526563 0
0.328125 0.524219 0
0.2625 0.521875 0
0.391406 0.460742 0
0.326172 0.458691 0
0.260938 0.456641 0
0.389063 0.394922 0
0.324219 0.393164 0
0.259375 0.391406 0
0.51875 0.398438 0
0.453906 0.39668 0
0.389063 0.394922 0
0.515625 0.332031 0
0.451172 0.330566 0
0.386719 0.329102 0
0.5125 0.265625 0
0.448437 0.264453 0
0.384375 0.263281 0
0.389063 0.394922 0
0.324219 0.393164 0
0.259375 0.391406 0
0.386719 0.329102 0
0.322266 0.327637 0
0.257812 0.326172 0
0.384375 0.263281 0
0.320312 0.262109 0
0.25625 0.260937 0
0.2625 0.521875 0
0.196875 0.519531 0
0.13125 0.517187 0
0.260938 0.456641 0
0.195703 0.45459 0
0.130469 0.452539 0
0.259375 0.391406 0
0.194531 0.389648 0
0.129688 0.387891 0
0.13125 0.517187 0
0.065625 0.514844 0
0 0.5125 0
0.130469 0.452539 0
0.0652344 0.450488 0
0 0.448437 0
0.129688 0.387891 0
0.0648438 0.386133 0
0 0.384375 0
0.259375 0.391406 0
0.194531 0.389648 0
0.129688 0.387891 0
0.257812 0.326172 0
0.193359 0.324707 0
0.128906 0.323242 0
0.25625 0.260937 0
0.192187 0.259766 0
0.128125 0.258594 0
0.129688 0.387891 0
0.0648438 0.386133 0
0 0.384375 0
0.128906 0.323242 0
0.0644531 0.321777 0
0 0.320312 0
0.128125 0.258594 0
0.0640625 0.257422 0
0 0.25625 0
0.5125 0.265625 0
0.448437 0.264453 0
0.384375 0.263281 0
0.509375 0.199219 0
0.445703 0.19834 0
0.382031 0.197461 0
0.50625 0.132812 0
0.442969 0.132227 0
0.379688 0.131641 0
0.384375 0.263281 0
0.320312 0.262109 0
0.25625 0.260937 0
0.382031 0.197461 0
0.318359 0.196582 0
0.254687 0.195703 0
[...]
POINT_DATA 34560
VECTORS v double
1.19953 -0.205766 0
1.19052 -0.183481 0
1.18256 -0.164271 0
1.16646 -0.195051 0
1.15561 -0.175687 0
1.14633 -0.157955 0
1.13081 -0.18394 0
1.11866 -0.166291 0
1.10751 -0.15008 0
1.18256 -0.164271 0
1.17604 -0.146289 0
1.17041 -0.130675 0
1.14633 -0.157955 0
1.13795 -0.14167 0
1.13105 -0.126986 0
1.10751 -0.15008 0
1.0977 -0.13512 0
1.08894 -0.121448 0
1.13081 -0.18394 0
1.11866 -0.166291 0
1.10751 -0.15008 0
1.08882 -0.169097 0
1.07514 -0.153711 0
1.06265 -0.139472 0
1.04015 -0.155349 0
1.02581 -0.141803 0
1.01254 -0.129142 0
1.10751 -0.15008 0
1.0977 -0.13512 0
1.08894 -0.121448 0
1.06265 -0.139472 0
1.05146 -0.126217 0
1.04146 -0.11401 0
1.01254 -0.129142 0
1.00059 -0.117273 0
0.989733 -0.106255 0
1.17041 -0.130675 0
1.16545 -0.116089 0
1.16122 -0.103176 0
1.13105 -0.126986 0
1.12442 -0.113384 0
1.11913 -0.101074 0
1.08894 -0.121448 0
1.08099 -0.108795 0
1.0741 -0.0971754 0
1.16122 -0.103176 0
1.15699 -0.0910248 0
1.15328 -0.0800165 0
1.11913 -0.101074 0
1.11343 -0.0894612 0
1.10886 -0.078805 0
1.0741 -0.0971754 0
1.06728 -0.0862537 0
1.06143 -0.0760685 0
1.08894 -0.121448 0
1.08099 -0.108795 0
1.0741 -0.0971754 0
1.04146 -0.11401 0
1.03233 -0.102559 0
1.02434 -0.0920192 0
0.989733 -0.106255 0
0.979802 -0.095884 0
0.970963 -0.0862587 0
1.0741 -0.0971754 0
1.06728 -0.0862537 0
1.06143 -0.0760685 0
1.02434 -0.0920192 0
1.0166 -0.0819876 0
1.00987 -0.0725555 0
0.970963 -0.0862587 0
0.962512 -0.0770466 0
0.955079 -0.0683353 0
1.04015 -0.155349 0
1.02581 -0.141803 0
1.01254 -0.129142 0
0.986388 -0.140506 0
0.971592 -0.1287 0
0.957769 -0.11759 0
0.927943 -0.12634 0
0.912909 -0.115981 0
0.89873 -0.106189 0
1.01254 -0.129142 0
1.00059 -0.117273 0
0.989733 -0.106255 0
0.957769 -0.11759 0
0.945205 -0.107117 0
0.933656 -0.0973657 0
0.89873 -0.106189 0
0.885766 -0.0969455 0
0.873725 -0.0883112 0
0.927943 -0.12634 0
0.912909 -0.115981 0
0.89873 -0.106189 0
0.864344 -0.111018 0
0.849227 -0.102121 0
0.834931 -0.093687 0
0.795868 -0.0967439 0
0.780939 -0.0890828 0
0.766755 -0.0817932 0
0.89873 -0.106189 0
0.885766 -0.0969455 0
0.873725 -0.0883112 0
0.834931 -0.093687 0
0.821759 -0.085705 0
0.809456 -0.0782444 0
0.766755 -0.0817932 0
0.753619 -0.0748913 0
0.741274 -0.0684408 0
0.989733 -0.106255 0
0.979802 -0.095884 0
0.970963 -0.0862587 0
0.933656 -0.0973657 0
0.923076 -0.088141 0
0.91353 -0.079545 0
0.873725 -0.0883112 0
0.862674 -0.0801318 0
0.852597 -0.072493 0
0.970963 -0.0862587 0
0.962512 -0.0770466 0
0.955079 -0.0683353 0
0.91353 -0.079545 0
0.904516 -0.0712773 0
0.896494 -0.063423 0
0.852597 -0.072493 0
0.843152 -0.0651288 0
0.834667 -0.0581055 0
0.873725 -0.0883112 0
0.862674 -0.0801318 0
0.852597 -0.072493 0
0.809456 -0.0782444 0
0.798114 -0.0711708 0
0.787697 -0.0645672 0
0.741274 -0.0684408 0
0.729844 -0.0623451 0
0.719265 -0.0566713 0
0.852597 -0.072493 0
0.843152 -0.0651288 0
0.834667 -0.0581055 0
0.787697 -0.0645672 0
0.77796 -0.0581876 0
0.769159 -0.0520939 0
0.719265 -0.0566713 0
0.709389 -0.0512073 0
0.700399 -0.045993 0
1.15328 -0.0800165 0
1.14952 -0.0694407 0
1.14617 -0.0594995 0
1.10886 -0.078805 0
1.10395 -0.0685358 0
1.10001 -0.0588201 0
1.06143 -0.0760685 0
1.05568 -0.0662695 0
1.05082 -0.0569078 0
1.14617 -0.0594995 0
1.14245 -0.0496955 0
1.13902 -0.0401644 0
1.10001 -0.0588201 0
1.09541 -0.0491839 0
1.09158 -0.0397983 0
1.05082 -0.0569078 0
1.0456 -0.0476444 0
1.04117 -0.0385276 0
1.06143 -0.0760685 0
1.05568 -0.0662695 0
1.05082 -0.0569078 0
1.00987 -0.0725555 0
1.00342 -0.0633766 0
0.997904 -0.0545896 0
0.955079 -0.0683353 0
0.948041 -0.0598238 0
0.941965 -0.0516157 0
1.05082 -0.0569078 0
1.0456 -0.0476444 0
1.04117 -0.0385276 0
0.997904 -0.0545896 0
0.992246 -0.0458289 0
0.987392 -0.0371307 0
0.941965 -0.0516157 0
0.93591 -0.0433831 0
0.930711 -0.035182 0
1.13902 -0.0401644 0
1.13544 -0.0304749 0
1.13213 -0.0206772 0
1.09158 -0.0397983 0
1.08746 -0.0302439 0
1.08403 -0.0205692 0
1.04117 -0.0385276 0
1.0367 -0.0292519 0
1.03298 -0.0198549 0
1.13213 -0.0206772 0
1.12844 -0.0104915 0
1.125 0 0
1.08403 -0.0205692 0
1.08005 -0.0104643 0
1.07666 0 0
1.03298 -0.0198549 0
1.02884 -0.0100904 0
1.02539 0 0
1.04117 -0.0385276 0
1.0367 -0.0292519 0
1.03298 -0.0198549 0
0.987392 -0.0371307 0
0.982692 -0.0282313 0
0.978765 -0.0192216 0
0.930711 -0.035182 0
0.925773 -0.0267746 0
0.921661 -0.0182256 0
1.03298 -0.0198549 0
1.02884 -0.0100904 0
1.02539 0 0
0.978765 -0.0192216 0
0.974631 -0.00982378 0
0.971191 0 0
0.921661 -0.0182256 0
0.917478 -0.009295 0
0.914062 0 0
0.955079 -0.0683353 0
0.948041 -0.0598238 0
0.941965 -0.0516157 0
0.896494 -0.063423 0
0.889009 -0.0556922 0
0.88248 -0.0481857 0
0.834667 -0.0581055 0
0.826827 -0.0511586 0
0.819945 -0.0443783 0
0.941965 -0.0516157 0
0.93591 -0.0433831 0
0.930711 -0.035182 0
0.88248 -0.0481857 0
0.876151 -0.040609 0
0.870699 -0.0330197 0
0.819945 -0.0443783 0
0.813402 -0.0374933 0
0.807752 -0.0305527 0
0.834667 -0.0581055 0
0.826827 -0.0511586 0
0.819945 -0.0443783 0
0.769159 -0.0520939 0
0.761081 -0.0460302 0
0.75396 -0.0400783 0
0.700399 -0.045993 0
0.69218 -0.0407893 0
0.684902 -0.0356605 0
0.819945 -0.0443783 0
0.813402 -0.0374933 0
0.807752 -0.0305527 0
0.75396 -0.0400783 0
0.747289 -0.0339774 0
0.741533 -0.0277802 0
0.684902 -0.0356605 0
0.678168 -0.0303586 0
0.672362 -0.024926 0
0.930711 -0.035182 0
0.925773 -0.0267746 0
0.921661 -0.0182256 0
0.870699 -0.0330197 0
0.865636 -0.0251895 0
0.861434 -0.0171839 0
0.807752 -0.0305527 0
0.802594 -0.0233524 0
0.798326 -0.015956 0
0.921661 -0.0182256 0
0.917478 -0.009295 0
0.914062 0 0
0.861434 -0.0171839 0
0.857315 -0.00878608 0
0.854004 0 0
0.798326 -0.015956 0
0.794246 -0.00817136 0
0.791016 0 0
0.807752 -0.0305527 0
0.802594 -0.0233524 0
0.798326 -0.015956 0
0.741533 -0.0277802 0
0.73636 -0.0212948 0
0.732113 -0.0145876 0
0.672362 -0.024926 0
0.667208 -0.0191855 0
0.663005 -0.013199 0
0.798326 -0.015956 0
0.794246 -0.00817136 0
0.791016 0 0
0.732113 -0.0145876 0
0.728159 -0.0074851 0
0.725098 0 0
0.663005 -0.013199 0
0.659166 -0.00680992 0
0.65625 0 0
0.795868 -0.0967439 0
0.780939 -0.0890828 0
0.766755 -0.0817932 0
0.722818 -0.0818534 0
0.70812 -0.0753899 0
0.694155 -0.0692287 0
0.645147 -0.0679068 0
0.630813 -0.0625268 0
0.617194 -0.0573857 0
0.766755 -0.0817932 0
0.753619 -0.0748913 0
0.741274 -0.0684408 0
0.694155 -0.0692287 0
0.681172 -0.0633929 0
0.668943 -0.0579479 0
0.617194 -0.0573857 0
0.604521 -0.0525138 0
0.592577 -0.0479731 0
0.645147 -0.0679068 0
0.630813 -0.0625268 0
0.617194 -0.0573857 0
0.563024 -0.0534493 0
0.549046 -0.0491607 0
0.535813 -0.0450647 0
0.475804 -0.039898 0
0.462329 -0.0366595 0
0.449622 -0.0335678 0
0.617194 -0.0573857 0
0.604521 -0.0525138 0
0.592577 -0.0479731 0
0.535813 -0.0450647 0
0.523509 -0.0411856 0
0.511954 -0.0375776 0
0.449622 -0.0335678 0
0.437853 -0.0306417 0
0.426856 -0.0279287 0
0.741274 -0.0684408 0
0.729844 -0.0623451 0
0.719265 -0.0566713 0
0.668943 -0.0579479 0
0.657579 -0.0528232 0
0.647012 -0.048084 0
0.592577 -0.0479731 0
0.581461 -0.0437231 0
0.571091 -0.0398258 0
0.719265 -0.0566713 0
0.709389 -0.0512073 0
0.700399 -0.045993 0
0.647012 -0.048084 0
0.637132 -0.0435479 0
0.62809 -0.0392458 0
0.571091 -0.0398258 0
0.561387 -0.0361396 0
0.552455 -0.03268 0
0.592577 -0.0479731 0
0.581461 -0.0437231 0
0.571091 -0.0398258 0
0.511954 -0.0375776 0
0.501214 -0.0342118 0
0.491211 -0.0311527 0
0.426856 -0.0279287 0
0.416677 -0.0254068 0
0.407234 -0.0231345 0
0.571091 -0.0398258 0
0.561387 -0.0361396 0
0.552455 -0.03268 0
0.491211 -0.0311527 0
0.481857 -0.0282892 0
0.473228 -0.0256389 0
0.407234 -0.0231345 0
0.39844 -0.0210313 0
0.390332 -0.0191144 0
0.475804 -0.039898 0
0.462329 -0.0366595 0
0.449622 -0.0335678 0
0.382233 -0.0260755 0
0.369532 -0.0239146 0
0.357657 -0.0218659 0
0.277974 -0.013871 0
0.26716 -0.0127504 0
0.257102 -0.0116937 0
0.449622 -0.0335678 0
0.437853 -0.0306417 0
0.426856 -0.0279287 0
0.357657 -0.0218659 0
0.346714 -0.0199386 0
0.336576 -0.0181672 0
0.257102 -0.0116937 0
0.247875 -0.0106981 0
0.239369 -0.00979041 0
0.277974 -0.013871 0
0.26716 -0.0127504 0
0.257102 -0.0116937 0
0.157421 -0.00403802 0
0.150316 -0.00369694 0
0.143702 -0.00338619 0
0 0 0
0 0 0
0 0 0
0.257102 -0.0116937 0
0.247875 -0.0106981 0
0.239369 -0.00979041 0
0.143702 -0.00338619 0
0.137607 -0.00309815 0
0.131967 -0.00284941 0
0 0 0
0 0 0
0 0 0
0.426856 -0.0279287 0
0.416677 -0.0254068 0
0.407234 -0.0231345 0
0.336576 -0.0181672 0
0.327242 -0.0165278 0
0.318648 -0.0150686 0
0.239369 -0.00979041 0
0.231555 -0.00894311 0
0.22438 -0.00819627 0
0.407234 -0.0231345 0
0.39844 -0.0210313 0
0.390332 -0.0191144 0
0.318648 -0.0150686 0
0.310687 -0.013725 0
0.30338 -0.0125132 0
0.22438 -0.00819627 0
0.217749 -0.00750511 0
0.211663 -0.00688755 0
0.239369 -0.00979041 0
0.231555 -0.00894311 0
0.22438 -0.00819627 0
0.131967 -0.00284941 0
0.126746 -0.00261136 0
0.121917 -0.00241323 0
0 0 0
0 0 0
0 0 0
0.22438 -0.00819627 0
0.217749 -0.00750511 0
0.211663 -0.00688755 0
0.121917 -0.00241323 0
0.117414 -0.00221929 0
0.113255 -0.00205645 0
0 0 0
0 0 0
0 0 0
0.700399 -0.045993 0
0.69218 -0.0407893 0
0.684902 -0.0356605 0
0.62809 -0.0392458 0
0.619832 -0.0349519 0
0.612495 -0.0307117 0
0.552455 -0.03268 0
0.544286 -0.0292465 0
0.536993 -0.0258656 0
0.684902 -0.0356605 0
0.678168 -0.0303586 0
0.672362 -0.024926 0
0.612495 -0.0307117 0
0.605769 -0.0262779 0
0.599979 -0.021684 0
0.536993 -0.0258656 0
0.530344 -0.0222931 0
0.524627 -0.0185423 0
0.552455 -0.03268 0
0.544286 -0.0292465 0
0.536993 -0.0258656 0
0.473228 -0.0256389 0
0.465305 -0.0230355 0
0.458195 -0.0205019 0
0.390332 -0.0191144 0
0.382866 -0.0172645 0
0.37613 -0.0154996 0
0.536993 -0.0258656 0
0.530344 -0.0222931 0
0.524627 -0.0185423 0
0.458195 -0.0205019 0
0.451717 -0.017805 0
0.44614 -0.0149334 0
0.37613 -0.0154996 0
0.369969 -0.0136183 0
0.364641 -0.0115857 0
0.672362 -0.024926 0
0.667208 -0.0191855 0
0.663005 -0.013199 0
0.599979 -0.021684 0
0.594905 -0.016758 0
0.590811 -0.0115638 0
0.524627 -0.0185423 0
0.51967 -0.0144432 0
0.515712 -0.0100567 0
0.663005 -0.013199 0
0.659166 -0.00680992 0
0.65625 0 0
0.590811 -0.0115638 0
0.58716 -0.00596952 0
0.584473 0 0
0.515712 -0.0100567 0
0.512245 -0.00525926 0
0.509766 0 0
0.524627 -0.0185423 0
0.51967 -0.0144432 0
0.515712 -0.0100567 0
0.44614 -0.0149334 0
0.441342 -0.0117111 0
0.437558 -0.0081952 0
0.364641 -0.0115857 0
0.360061 -0.00922521 0
0.356486 -0.00657522 0
0.515712 -0.0100567 0
0.512245 -0.00525926 0
0.509766 0 0
0.437558 -0.0081952 0
0.434327 -0.00428146 0
0.432129 0 0
0.356486 -0.00657522 0
0.3535 -0.00353436 0
0.351562 0 0
0.390332 -0.0191144 0
0.382866 -0.0172645 0
0.37613 -0.0154996 0
0.30338 -0.0125132 0
0.296636 -0.0113424 0
0.290536 -0.0102485 0
0.211663 -0.00688755 0
0.206023 -0.00628556 0
0.200892 -0.00573465 0
0.37613 -0.0154996 0
0.369969 -0.0136183 0
0.364641 -0.0115857 0
0.290536 -0.0102485 0
0.28491 -0.00908023 0
0.280002 -0.00780474 0
0.200892 -0.00573465 0
0.196123 -0.00515232 0
0.191915 -0.00452114 0
0.211663 -0.00688755 0
0.206023 -0.00628556 0
0.200892 -0.00573465 0
0.113255 -0.00205645 0
0.109349 -0.00188343 0
0.105794 -0.00173298 0
0 0 0
0 0 0
0 0 0
0.200892 -0.00573465 0
0.196123 -0.00515232 0
0.191915 -0.00452114 0
0.105794 -0.00173298 0
0.102435 -0.00155478 0
0.0994793 -0.00136712 0
0 0 0
0 0 0
0 0 0
0.364641 -0.0115857 0
0.360061 -0.00922521 0
0.356486 -0.00657522 0
0.280002 -0.00780474 0
0.275733 -0.00626417 0
0.27241 -0.00449155 0
0.191915 -0.00452114 0
0.188202 -0.00373913 0
0.185295 -0.00280118 0
0.356486 -0.00657522 0
0.3535 -0.00353436 0
0.351562 0 0
0.27241 -0.00449155 0
0.269697 -0.00238747 0
0.268066 0 0
0.185295 -0.00280118 0
0.182961 -0.00162512 0
0.181641 0 0
0.191915 -0.00452114 0
0.188202 -0.00373913 0
0.185295 -0.00280118 0
0.0994793 -0.00136712 0
0.0967934 -0.00111888 0
0.0947679 -0.000817242 0
0 0 0
0 0 0
0 0 0
0.185295 -0.00280118 0
0.182961 -0.00162512 0
0.181641 0 0
0.0947679 -0.000817242 0
0.0930828 -0.000409106 0
0.0922852 0 0
0 0 0
0 0 0
0 0 0
1.59064 -0.353514 0
1.55774 -0.370794 0
1.52164 -0.384102 0
1.52335 -0.308854 0
1.49286 -0.325596 0
1.46001 -0.337983 0
1.45253 -0.272725 0
1.42746 -0.288626 0
1.40007 -0.300749 0
1.52164 -0.384102 0
1.48567 -0.390227 0
1.44774 -0.392202 0
1.46001 -0.337983 0
1.42733 -0.345452 0
1.39317 -0.348439 0
1.40007 -0.300749 0
1.37292 -0.308782 0
1.34418 -0.312797 0
1.45253 -0.272725 0
1.42746 -0.288626 0
1.40007 -0.300749 0
1.39448 -0.24261 0
1.37229 -0.25541 0
1.34815 -0.265294 0
1.32422 -0.212105 0
1.30344 -0.223395 0
1.28098 -0.232236 0
1.40007 -0.300749 0
1.37292 -0.308782 0
1.34418 -0.312797 0
1.34815 -0.265294 0
1.3235 -0.271836 0
1.29744 -0.275276 0
1.28098 -0.232236 0
1.2583 -0.238475 0
1.23445 -0.242099 0
1.44774 -0.392202 0
1.41333 -0.388051 0
1.37825 -0.37983 0
1.39317 -0.348439 0
1.3623 -0.346783 0
1.33097 -0.341701 0
1.34418 -0.312797 0
1.31799 -0.312997 0
1.29095 -0.309696 0
1.37825 -0.37983 0
1.34782 -0.367774 0
1.31768 -0.352993 0
1.33097 -0.341701 0
1.30381 -0.333171 0
1.27692 -0.321965 0
1.29095 -0.309696 0
1.26712 -0.303289 0
1.24304 -0.294155 0
1.34418 -0.312797 0
1.31799 -0.312997 0
1.29095 -0.309696 0
1.29744 -0.275276 0
1.27284 -0.275543 0
1.24749 -0.27305 0
1.23445 -0.242099 0
1.21201 -0.243161 0
1.18906 -0.241883 0
1.29095 -0.309696 0
1.26712 -0.303289 0
1.24304 -0.294155 0
1.24749 -0.27305 0
1.22452 -0.268047 0
1.20142 -0.26089 0
1.18906 -0.241883 0
1.16818 -0.238435 0
1.14728 -0.233047 0
1.32422 -0.212105 0
1.30344 -0.223395 0
1.28098 -0.232236 0
1.25021 -0.188143 0
1.23175 -0.197941 0
1.21179 -0.205691 0
1.17995 -0.164656 0
1.16273 -0.173351 0
1.14418 -0.180302 0
1.28098 -0.232236 0
1.2583 -0.238475 0
1.23445 -0.242099 0
1.21179 -0.205691 0
1.19172 -0.211193 0
1.17053 -0.214473 0
1.14418 -0.180302 0
1.12542 -0.185318 0
1.10566 -0.188434 0
1.17995 -0.164656 0
1.16273 -0.173351 0
1.14418 -0.180302 0
1.10748 -0.142297 0
1.09111 -0.14976 0
1.0735 -0.155739 0
1.03096 -0.120905 0
1.01529 -0.127456 0
0.998489 -0.132792 0
1.14418 -0.180302 0
1.12542 -0.185318 0
1.10566 -0.188434 0
1.0735 -0.155739 0
1.05574 -0.160131 0
1.03705 -0.16293 0
0.998489 -0.132792 0
0.981615 -0.136814 0
0.963886 -0.139494 0
1.23445 -0.242099 0
1.21201 -0.243161 0
1.18906 -0.241883 0
1.17053 -0.214473 0
1.15045 -0.215531 0
1.12974 -0.214558 0
1.10566 -0.188434 0
1.08672 -0.189639 0
1.06722 -0.189102 0
1.18906 -0.241883 0
1.16818 -0.238435 0
1.14728 -0.233047 0
1.12974 -0.214558 0
1.11065 -0.211707 0
1.09135 -0.207157 0
1.06722 -0.189102 0
1.04905 -0.186939 0
1.03074 -0.183301 0
1.10566 -0.188434 0
1.08672 -0.189639 0
1.06722 -0.189102 0
1.03705 -0.16293 0
1.01911 -0.164163 0
1.00065 -0.163908 0
0.963886 -0.139494 0
0.946814 -0.140839 0
0.929245 -0.140909 0
1.06722 -0.189102 0
1.04905 -0.186939 0
1.03074 -0.183301 0
1.00065 -0.163908 0
0.983358 -0.162285 0
0.965914 -0.159372 0
0.929245 -0.140909 0
0.912685 -0.139789 0
0.895968 -0.137541 0
1.31768 -0.352993 0
1.29347 -0.336287 0
1.27042 -0.317578 0
1.27692 -0.321965 0
1.25529 -0.308399 0
1.23454 -0.293562 0
1.24304 -0.294155 0
1.22295 -0.283048 0
1.2032 -0.27031 0
1.27042 -0.317578 0
1.25214 -0.298598 0
1.2354 -0.279062 0
1.23454 -0.293562 0
1.21787 -0.277719 0
1.20237 -0.261119 0
1.2032 -0.27031 0
1.18679 -0.256517 0
1.17109 -0.241905 0
1.24304 -0.294155 0
1.22295 -0.283048 0
1.2032 -0.27031 0
1.20142 -0.26089 0
1.18163 -0.251998 0
1.16228 -0.241673 0
1.14728 -0.233047 0
1.12915 -0.226031 0
1.11146 -0.217691 0
1.2032 -0.27031 0
1.18679 -0.256517 0
1.17109 -0.241905 0
1.16228 -0.241673 0
1.14593 -0.230415 0
1.13038 -0.218426 0
1.11146 -0.217691 0
1.09618 -0.208362 0
1.08157 -0.19824 0
1.2354 -0.279062 0
1.2232 -0.260097 0
1.21292 -0.240972 0
1.20237 -0.261119 0
1.19081 -0.244205 0
1.18065 -0.227455 0
1.17109 -0.241905 0
1.15872 -0.227135 0
1.14748 -0.212332 0
1.21292 -0.240972 0
1.20545 -0.222925 0
1.19953 -0.205766 0
1.18065 -0.227455 0
1.17283 -0.211082 0
1.16646 -0.195051 0
1.14748 -0.212332 0
1.13853 -0.197886 0
1.13081 -0.18394 0
1.17109 -0.241905 0
1.15872 -0.227135 0
1.14748 -0.212332 0
1.13038 -0.218426 0
1.11788 -0.206135 0
1.10645 -0.193653 0
1.08157 -0.19824 0
1.06945 -0.187677 0
1.05824 -0.176864 0
1.14748 -0.212332 0
1.13853 -0.197886 0
1.13081 -0.18394 0
1.10645 -0.193653 0
1.09708 -0.181285 0
1.08882 -0.169097 0
1.05824 -0.176864 0
1.0487 -0.166048 0
1.04015 -0.155349 0
1.14728 -0.233047 0
1.12915 -0.226031 0
1.11146 -0.217691 0
1.09135 -0.207157 0
1.07431 -0.201215 0
1.05749 -0.194098 0
1.03074 -0.183301 0
1.01435 -0.178426 0
0.998217 -0.172507 0
1.11146 -0.217691 0
1.09618 -0.208362 0
1.08157 -0.19824 0
1.05749 -0.194098 0
1.0427 -0.186139 0
1.02843 -0.177442 0
0.998217 -0.172507 0
0.983873 -0.165795 0
0.97003 -0.158404 0
1.03074 -0.183301 0
1.01435 -0.178426 0
0.998217 -0.172507 0
0.965914 -0.159372 0
0.950128 -0.155389 0
0.934551 -0.15046 0
0.895968 -0.137541 0
0.880669 -0.13434 0
0.865551 -0.130298 0
0.998217 -0.172507 0
0.983873 -0.165795 0
0.97003 -0.158404 0
0.934551 -0.15046 0
0.920518 -0.144822 0
0.906927 -0.138551 0
0.865551 -0.130298 0
0.851796 -0.125607 0
0.838457 -0.120333 0
1.08157 -0.19824 0
1.06945 -0.187677 0
1.05824 -0.176864 0
1.02843 -0.177442 0
1.01636 -0.168378 0
1.00507 -0.159083 0
0.97003 -0.158404 0
0.958112 -0.150625 0
0.946894 -0.142586 0
1.05824 -0.176864 0
1.0487 -0.166048 0
1.04015 -0.155349 0
1.00507 -0.159083 0
0.9953 -0.14979 0
0.986388 -0.140506 0
0.946894 -0.142586 0
0.937037 -0.134472 0
0.927943 -0.12634 0
0.97003 -0.158404 0
0.958112 -0.150625 0
0.946894 -0.142586 0
0.906927 -0.138551 0
0.895013 -0.131914 0
0.883742 -0.12501 0
0.838457 -0.120333 0
0.826618 -0.1147 0
0.815389 -0.108806 0
0.946894 -0.142586 0
0.937037 -0.134472 0
0.927943 -0.12634 0
0.883742 -0.12501 0
0.873692 -0.118029 0
0.864344 -0.111018 0
0.815389 -0.108806 0
0.805293 -0.102807 0
0.795868 -0.0967439 0
1.03096 -0.120905 0
1.01529 -0.127456 0
0.998489 -0.132792 0
0.953924 -0.101936 0
0.938674 -0.107413 0
0.922388 -0.111891 0
0.876091 -0.0827251 0
0.860779 -0.0874419 0
0.8445 -0.0913365 0
0.998489 -0.132792 0
0.981615 -0.136814 0
0.963886 -0.139494 0
0.922388 -0.111891 0
0.906049 -0.115281 0
0.888914 -0.117552 0
0.8445 -0.0913365 0
0.828247 -0.0943331 0
0.811268 -0.0964052 0
0.876091 -0.0827251 0
0.860779 -0.0874419 0
0.8445 -0.0913365 0
0.796302 -0.0642772 0
0.780925 -0.0682042 0
0.764623 -0.0714597 0
0.711265 -0.0460842 0
0.695947 -0.049312 0
0.679658 -0.0520237 0
0.8445 -0.0913365 0
0.828247 -0.0943331 0
0.811268 -0.0964052 0
0.764623 -0.0714597 0
0.748364 -0.0739846 0
0.731407 -0.0757594 0
0.679658 -0.0520237 0
0.663418 -0.0541659 0
0.646461 -0.055724 0
0.963886 -0.139494 0
0.946814 -0.140839 0
0.929245 -0.140909 0
0.888914 -0.117552 0
0.87234 -0.118716 0
0.855299 -0.118816 0
0.811268 -0.0964052 0
0.794823 -0.0975601 0
0.777965 -0.0978284 0
0.929245 -0.140909 0
0.912685 -0.139789 0
0.895968 -0.137541 0
0.855299 -0.118816 0
0.839144 -0.117931 0
0.822845 -0.116093 0
0.777965 -0.0978284 0
0.761936 -0.0972689 0
0.745801 -0.0959049 0
0.811268 -0.0964052 0
0.794823 -0.0975601 0
0.777965 -0.0978284 0
0.731407 -0.0757594 0
0.714937 -0.0767913 0
0.698065 -0.0770987 0
0.646461 -0.055724 0
0.629943 -0.0566994 0
0.613016 -0.0571055 0
0.777965 -0.0978284 0
0.761936 -0.0972689 0
0.745801 -0.0959049 0
0.698065 -0.0770987 0
0.681959 -0.0767349 0
0.665753 -0.0757096 0
0.613016 -0.0571055 0
0.596799 -0.0569836 0
0.580486 -0.0563384 0
0.711265 -0.0460842 0
0.695947 -0.049312 0
0.679658 -0.0520237 0
0.6128 -0.0289632 0
0.598437 -0.031374 0
0.582964 -0.0334194 0
0.478319 -0.013065 0
0.466863 -0.0145957 0
0.454109 -0.0159329 0
0.679658 -0.0520237 0
0.663418 -0.0541659 0
0.646461 -0.055724 0
0.582964 -0.0334194 0
0.567427 -0.0350504 0
0.551059 -0.0362642 0
0.454109 -0.0159329 0
0.441131 -0.0170389 0
0.427193 -0.0179086 0
0.478319 -0.013065 0
0.466863 -0.0145957 0
0.454109 -0.0159329 0
0.280464 -0.00365007 0
0.274866 -0.00415905 0
0.267953 -0.00461007 0
0 0 0
0 0 0
0 0 0
0.454109 -0.0159329 0
0.441131 -0.0170389 0
0.427193 -0.0179086 0
0.267953 -0.00461007 0
0.260828 -0.00498273 0
0.252662 -0.0052716 0
0 0 0
0 0 0
0 0 0
0.646461 -0.055724 0
0.629943 -0.0566994 0
0.613016 -0.0571055 0
0.551059 -0.0362642 0
0.53502 -0.0370577 0