# vtk DataFile Version 3.0
#This file was generated by the deal.II library on 2025/1/7 at 19:21:56
ASCII
DATASET UNSTRUCTURED_GRID

POINTS 34560 double
1.1 1.1 0
1.03125 1.09531 0
0.9625 1.09063 0
1.09375 1.03125 0
1.02539 1.02686 0
0.957031 1.02246 0
1.0875 0.9625 0
1.01953 0.958398 0
0.951563 0.954297 0
0.9625 1.09063 0
0.89375 1.08594 0
0.825 1.08125 0
0.957031 1.02246 0
0.888672 1.01807 0
0.820312 1.01367 0
0.951563 0.954297 0
0.883594 0.950195 0
0.815625 0.946094 0
1.0875 0.9625 0
1.01953 0.958398 0
0.951563 0.954297 0
1.08125 0.89375 0
1.01367 0.889941 0
0.946094 0.886133 0
1.075 0.825 0
1.00781 0.821484 0
0.940625 0.817969 0
0.951563 0.954297 0
0.883594 0.950195 0
0.815625 0.946094 0
0.946094 0.886133 0
0.878516 0.882324 0
0.810938 0.878516 0
0.940625 0.817969 0
0.873438 0.814453 0
0.80625 0.810937 0
0.825 1.08125 0
0.75625 1.07656 0
0.6875 1.07187 0
0.820312 1.01367 0
0.751953 1.00928 0
0.683594 1.00488 0
0.815625 0.946094 0
0.747656 0.941992 0
0.679688 0.937891 0
0.6875 1.07187 0
0.61875 1.06719 0
0.55 1.0625 0
0.683594 1.00488 0
0.615234 1.00049 0
0.546875 0.996094 0
0.679688 0.937891 0
0.611719 0.933789 0
0.54375 0.929688 0
0.815625 0.946094 0
0.747656 0.941992 0
0.679688 0.937891 0
0.810938 0.878516 0
0.743359 0.874707 0
0.675781 0.870898 0
0.80625 0.810937 0
0.739063 0.807422 0
0.671875 0.803906 0
0.679688 0.937891 0
0.611719 0.933789 0
0.54375 0.929688 0
0.675781 0.870898 0
0.608203 0.86709 0
0.540625 0.863281 0
0.671875 0.803906 0
0.604688 0.800391 0
0.5375 0.796875 0
1.075 0.825 0
1.00781 0.821484 0
0.940625 0.817969 0
1.06875 0.75625 0
1.00195 0.753027 0
0.935156 0.749805 0
1.0625 0.6875 0
0.996094 0.68457 0
0.929688 0.681641 0
0.940625 0.817969 0
0.873438 0.814453 0
0.80625 0.810937 0
0.935156 0.749805 0
0.868359 0.746582 0
0.801563 0.743359 0
0.929688 0.681641 0
0.863281 0.678711 0
0.796875 0.675781 0
1.0625 0.6875 0
0.996094 0.68457 0
0.929688 0.681641 0
1.05625 0.61875 0
0.990234 0.616113 0
0.924219 0.613477 0
1.05 0.55 0
0.984375 0.547656 0
0.91875 0.545313 0
0.929688 0.681641 0
0.863281 0.678711 0
0.796875 0.675781 0
0.924219 0.613477 0
0.858203 0.61084 0
0.792188 0.608203 0
0.91875 0.545313 0
0.853125 0.542969 0
0.7875 0.540625 0
0.80625 0.810937 0
0.739063 0.807422 0
0.671875 0.803906 0
0.801563 0.743359 0
0.734766 0.740137 0
0.667969 0.736914 0
0.796875 0.675781 0
0.730469 0.672852 0
0.664062 0.669922 0
0.671875 0.803906 0
0.604688 0.800391 0
0.5375 0.796875 0
0.667969 0.736914 0
0.601172 0.733691 0
0.534375 0.730469 0
0.664062 0.669922 0
0.597656 0.666992 0
0.53125 0.664062 0
0.796875 0.675781 0
0.730469 0.672852 0
0.664062 0.669922 0
0.792188 0.608203 0
0.726172 0.605566 0
0.660156 0.60293 0
0.7875 0.540625 0
0.721875 0.538281 0
0.65625 0.535937 0
0.664062 0.669922 0
0.597656 0.666992 0
0.53125 0.664062 0
0.660156 0.60293 0
0.594141 0.600293 0
0.528125 0.597656 0
0.65625 0.535937 0
0.590625 0.533594 0
0.525 0.53125 0
0.55 1.0625 0
0.48125 1.05781 0
0.4125 1.05313 0
0.546875 0.996094 0
0.478516 0.991699 0
0.410156 0.987305 0
0.54375 0.929688 0
0.475781 0.925586 0
0.407813 0.921484 0
0.4125 1.05313 0
0.34375 1.04844 0
0.275 1.04375 0
0.410156 0.987305 0
0.341797 0.98291 0
0.273438 0.978516 0
0.407813 0.921484 0
0.339844 0.917383 0
0.271875 0.913281 0
0.54375 0.929688 0
0.475781 0.925586 0
0.407813 0.921484 0
0.540625 0.863281 0
0.473047 0.859473 0
0.405469 0.855664 0
0.5375 0.796875 0
0.470313 0.793359 0
0.403125 0.789844 0
0.407813 0.921484 0
0.339844 0.917383 0
0.271875 0.913281 0
0.405469 0.855664 0
0.337891 0.851855 0
0.270313 0.848047 0
0.403125 0.789844 0
0.335938 0.786328 0
0.26875 0.782813 0
0.275 1.04375 0
0.20625 1.03906 0
0.1375 1.03437 0
0.273438 0.978516 0
0.205078 0.974121 0
0.136719 0.969727 0
0.271875 0.913281 0
0.203906 0.90918 0
0.135938 0.905078 0
0.1375 1.03437 0
0.06875 1.02969 0
0 1.025 0
0.136719 0.969727 0
0.0683594 0.965332 0
0 0.960937 0
0.135938 0.905078 0
0.0679688 0.900977 0
0 0.896875 0
0.271875 0.913281 0
0.203906 0.90918 0
0.135938 0.905078 0
0.270313 0.848047 0
0.202734 0.844238 0
0.135156 0.84043 0
0.26875 0.782813 0
0.201563 0.779297 0
0.134375 0.775781 0
0.135938 0.905078 0
0.0679688 0.900977 0
0 0.896875 0
0.135156 0.84043 0
0.0675781 0.836621 0
0 0.832812 0
0.134375 0.775781 0
0.0671875 0.772266 0
0 0.76875 0
0.5375 0.796875 0
0.470313 0.793359 0
0.403125 0.789844 0
0.534375 0.730469 0
0.467578 0.727246 0
0.400781 0.724023 0
0.53125 0.664062 0
0.464844 0.661133 0
0.398438 0.658203 0
0.403125 0.789844 0
0.335938 0.786328 0
0.26875 0.782813 0
0.400781 0.724023 0
0.333984 0.720801 0
0.267188 0.717578 0
0.398438 0.658203 0
0.332031 0.655273 0
0.265625 0.652344 0
0.53125 0.664062 0
0.464844 0.661133 0
0.398438 0.658203 0
0.528125 0.597656 0
0.462109 0.59502 0
0.396094 0.592383 0
0.525 0.53125 0
0.459375 0.528906 0
0.39375 0.526563 0
0.398438 0.658203 0
0.332031 0.655273 0
0.265625 0.652344 0
0.396094 0.592383 0
0.330078 0.589746 0
0.264062 0.587109 0
0.39375 0.526563 0
0.328125 0.524219 0
0.2625 0.521875 0
0.26875 0.782813 0
0.201563 0.779297 0
0.134375 0.775781 0
0.267188 0.717578 0
0.200391 0.714355 0
0.133594 0.711133 0
0.265625 0.652344 0
0.199219 0.649414 0
0.132812 0.646484 0
0.134375 0.775781 0
0.0671875 0.772266 0
0 0.76875 0
0.133594 0.711133 0
0.0667969 0.70791 0
0 0.704687 0
0.132812 0.646484 0
0.0664062 0.643555 0
0 0.640625 0
0.265625 0.652344 0
0.199219 0.649414 0
0.132812 0.646484 0
0.264062 0.587109 0
0.198047 0.584473 0
0.132031 0.581836 0
0.2625 0.521875 0
0.196875 0.519531 0
0.13125 0.517187 0
0.132812 0.646484 0
0.0664062 0.643555 0
0 0.640625 0
0.132031 0.581836 0
0.0660156 0.579199 0
0 0.576562 0
0.13125 0.517187 0
0.065625 0.514844 0
0 0.5125 0
1.05 0.55 0
0.984375 0.547656 0
0.91875 0.545313 0
1.04375 0.48125 0
0.978516 0.479199 0
0.913281 0.477148 0
1.0375 0.4125 0
0.972656 0.410742 0
0.907813 0.408984 0
0.91875 0.545313 0
0.853125 0.542969 0
0.7875 0.540625 0
0.913281 0.477148 0
0.848047 0.475098 0
0.782813 0.473047 0
0.907813 0.408984 0
0.842969 0.407227 0
0.778125 0.405469 0
1.0375 0.4125 0
0.972656 0.410742 0
0.907813 0.408984 0
1.03125 0.34375 0
0.966797 0.342285 0
0.902344 0.34082 0
1.025 0.275 0
0.960937 0.273828 0
0.896875 0.272656 0
0.907813 0.408984 0
0.842969 0.407227 0
0.778125 0.405469 0
0.902344 0.34082 0
0.837891 0.339355 0
0.773438 0.337891 0
0.896875 0.272656 0
0.832812 0.271484 0
0.76875 0.270313 0
0.7875 0.540625 0
0.721875 0.538281 0
0.65625 0.535937 0
0.782813 0.473047 0
0.717578 0.470996 0
0.652344 0.468945 0
0.778125 0.405469 0
0.713281 0.403711 0
0.648438 0.401953 0
0.65625 0.535937 0
0.590625 0.533594 0
0.525 0.53125 0
0.652344 0.468945 0
0.587109 0.466895 0
0.521875 0.464844 0
0.648438 0.401953 0
0.583594 0.400195 0
0.51875 0.398438 0
0.778125 0.405469 0
0.713281 0.403711 0
0.648438 0.401953 0
0.773438 0.337891 0
0.708984 0.336426 0
0.644531 0.334961 0
0.76875 0.270313 0
0.704687 0.269141 0
0.640625 0.267969 0
0.648438 0.401953 0
0.583594 0.400195 0
0.51875 0.398438 0
0.644531 0.334961 0
0.580078 0.333496 0
0.515625 0.332031 0
0.640625 0.267969 0
0.576562 0.266797 0
0.5125 0.265625 0
1.025 0.275 0
0.960937 0.273828 0
0.896875 0.272656 0
1.01875 0.20625 0
0.955078 0.205371 0
0.891406 0.204492 0
1.0125 0.1375 0
0.949219 0.136914 0
0.885937 0.136328 0
0.896875 0.272656 0
0.832812 0.271484 0
0.76875 0.270313 0
0.891406 0.204492 0
0.827734 0.203613 0
0.764062 0.202734 0
0.885937 0.136328 0
0.822656 0.135742 0
0.759375 0.135156 0
1.0125 0.1375 0
0.949219 0.136914 0
0.885937 0.136328 0
1.00625 0.06875 0
0.943359 0.068457 0
0.880469 0.0681641 0
1 0 0
0.9375 0 0
0.875 0 0
0.885937 0.136328 0
0.822656 0.135742 0
0.759375 0.135156 0
0.880469 0.0681641 0
0.817578 0.0678711 0
0.754687 0.0675781 0
0.875 0 0
0.8125 0 0
0.75 0 0
0.76875 0.270313 0
0.704687 0.269141 0
0.640625 0.267969 0
0.764062 0.202734 0
0.700391 0.201855 0
0.636719 0.200977 0
0.759375 0.135156 0
0.696094 0.13457 0
0.632812 0.133984 0
0.640625 0.267969 0
0.576562 0.266797 0
0.5125 0.265625 0
0.636719 0.200977 0
0.573047 0.200098 0
0.509375 0.199219 0
0.632812 0.133984 0
0.569531 0.133398 0
0.50625 0.132812 0
0.759375 0.135156 0
0.696094 0.13457 0
0.632812 0.133984 0
0.754687 0.0675781 0
0.691797 0.0672852 0
0.628906 0.0669922 0
0.75 0 0
0.6875 0 0
0.625 0 0
0.632812 0.133984 0
0.569531 0.133398 0
0.50625 0.132812 0
0.628906 0.0669922 0
0.566016 0.0666992 0
0.503125 0.0664062 0
0.625 0 0
0.5625 0 0
0.5 0 0
0.525 0.53125 0
0.459375 0.528906 0
0.39375 0.526563 0
0.521875 0.464844 0
0.456641 0.462793 0
0.391406 0.460742 0
0.51875 0.398438 0
0.453906 0.39668 0
0.389063 0.394922 0
0.39375 0.526563 0
0.328125 0.524219 0
0.2625 0.521875 0
0.391406 0.460742 0
0.326172 0.458691 0
0.260938 0.456641 0
0.389063 0.394922 0
0.324219 0.393164 0
0.259375 0.391406 0
0.51875 0.398438 0
0.453906 0.39668 0
0.389063 0.394922 0
0.515625 0.332031 0
0.451172 0.330566 0
0.386719 0.329102 0
0.5125 0.265625 0
0.448437 0.264453 0
0.384375 0.263281 0
0.389063 0.394922 0
0.324219 0.393164 0
0.259375 0.391406 0
0.386719 0.329102 0
0.322266 0.327637 0
0.257812 0.326172 0
0.384375 0.263281 0
0.320312 0.262109 0
0.25625 0.260937 0
0.2625 0.521875 0
0.196875 0.519531 0
0.13125 0.517187 0
0.260938 0.456641 0
0.195703 0.45459 0
0.130469 0.452539 0
0.259375 0.391406 0
0.194531 0.389648 0
0.129688 0.387891 0
0.13125 0.517187 0
0.065625 0.514844 0
0 0.5125 0
0.130469 0.452539 0
0.0652344 0.450488 0
0 0.448437 0
0.129688 0.387891 0
0.0648438 0.386133 0
0 0.384375 0
0.259375 0.391406 0
0.194531 0.389648 0
0.129688 0.387891 0
0.257812 0.326172 0
0.193359 0.324707 0
0.128906 0.323242 0
0.25625 0.260937 0
0.192187 0.259766 0
0.128125 0.258594 0
0.129688 0.387891 0
0.0648438 0.386133 0
0 0.384375 0
0.128906 0.323242 0
0.0644531 0.321777 0
0 0.320312 0
0.128125 0.258594 0
0.0640625 0.257422 0
0 0.25625 0
0.5125 0.265625 0
0.448437 0.264453 0
0.384375 0.263281 0
0.509375 0.199219 0
0.445703 0.19834 0
0.382031 0.197461 0
0.50625 0.132812 0
0.442969 0.132227 0
0.379688 0.131641 0
0.384375 0.263281 0
0.320312 0.262109 0
0.25625 0.260937 0
0.382031 0.197461 0
0.318359 0.196582 0
0.254687 0.195703 0
[...]
POINT_DATA 34560
VECTORS v double
1.24813 -0.327424 0
1.233 -0.297313 0
1.21954 -0.269662 0
1.21542 -0.309374 0
1.19841 -0.282622 0
1.18332 -0.256969 0
1.17891 -0.291406 0
1.16085 -0.266882 0
1.14402 -0.243196 0
1.21954 -0.269662 0
1.20772 -0.243074 0
1.19727 -0.218482 0
1.18332 -0.256969 0
1.16963 -0.232587 0
1.15784 -0.209511 0
1.14402 -0.243196 0
1.12914 -0.220644 0
1.11558 -0.199015 0
1.17891 -0.291406 0
1.16085 -0.266882 0
1.14402 -0.243196 0
1.13767 -0.269665 0
1.11785 -0.24767 0
1.09976 -0.226423 0
1.08942 -0.248608 0
1.06871 -0.228984 0
1.04969 -0.209867 0
1.14402 -0.243196 0
1.12914 -0.220644 0
1.11558 -0.199015 0
1.09976 -0.226423 0
1.08327 -0.205955 0
1.06849 -0.1863 0
1.04969 -0.209867 0
1.03233 -0.19132 0
1.01669 -0.173394 0
1.19727 -0.218482 0
1.18785 -0.195007 0
1.17956 -0.173078 0
1.15784 -0.209511 0
1.14674 -0.187531 0
1.13742 -0.166757 0
1.11558 -0.199015 0
1.10334 -0.178465 0
1.09246 -0.158808 0
1.17956 -0.173078 0
1.17175 -0.152189 0
1.16485 -0.132495 0
1.13742 -0.166757 0
1.12814 -0.146876 0
1.12043 -0.128063 0
1.09246 -0.158808 0
1.08214 -0.140084 0
1.07314 -0.122169 0
1.11558 -0.199015 0
1.10334 -0.178465 0
1.09246 -0.158808 0
1.06849 -0.1863 0
1.05489 -0.167397 0
1.04292 -0.149332 0
1.01669 -0.173394 0
1.00224 -0.156067 0
0.989486 -0.139428 0
1.09246 -0.158808 0
1.08214 -0.140084 0
1.07314 -0.122169 0
1.04292 -0.149332 0
1.03155 -0.131954 0
1.02168 -0.115287 0
0.989486 -0.139428 0
0.977386 -0.12334 0
0.966869 -0.10787 0
1.08942 -0.248608 0
1.06871 -0.228984 0
1.04969 -0.209867 0
1.0356 -0.226703 0
1.0144 -0.209316 0
0.994815 -0.192247 0
0.977742 -0.205289 0
0.956154 -0.189884 0
0.936081 -0.174683 0
1.04969 -0.209867 0
1.03233 -0.19132 0
1.01669 -0.173394 0
0.994815 -0.192247 0
0.976844 -0.175585 0
0.960522 -0.159398 0
0.936081 -0.174683 0
0.917587 -0.159787 0
0.900692 -0.145253 0
0.977742 -0.205289 0
0.956154 -0.189884 0
0.936081 -0.174683 0
0.915024 -0.182214 0
0.893099 -0.168854 0
0.872681 -0.155624 0
0.847546 -0.160108 0
0.825584 -0.148615 0
0.80507 -0.13718 0
0.936081 -0.174683 0
0.917587 -0.159787 0
0.900692 -0.145253 0
0.872681 -0.155624 0
0.853806 -0.142598 0
0.83652 -0.129837 0
0.80507 -0.13718 0
0.786041 -0.125869 0
0.768556 -0.114749 0
1.01669 -0.173394 0
1.00224 -0.156067 0
0.989486 -0.139428 0
0.960522 -0.159398 0
0.94545 -0.143685 0
0.932002 -0.128532 0
0.900692 -0.145253 0
0.885085 -0.131093 0
0.871079 -0.117391 0
0.989486 -0.139428 0
0.977386 -0.12334 0
0.966869 -0.10787 0
0.932002 -0.128532 0
0.919363 -0.113844 0
0.908265 -0.0996688 0
0.871079 -0.117391 0
0.857991 -0.104073 0
0.846434 -0.0911867 0
0.900692 -0.145253 0
0.885085 -0.131093 0
0.871079 -0.117391 0
0.83652 -0.129837 0
0.820532 -0.117343 0
0.806141 -0.105208 0
0.768556 -0.114749 0
0.752352 -0.103821 0
0.737719 -0.0931766 0
0.871079 -0.117391 0
0.857991 -0.104073 0
0.846434 -0.0911867 0
0.806141 -0.105208 0
0.792737 -0.0933655 0
0.780869 -0.0818781 0
0.737719 -0.0931766 0
0.724125 -0.082761 0
0.712059 -0.0726351 0
1.16485 -0.132495 0
1.15832 -0.113677 0
1.15255 -0.0957478 0
1.12043 -0.128063 0
1.11274 -0.109991 0
1.1064 -0.0927502 0
1.07314 -0.122169 0
1.06461 -0.105004 0
1.05734 -0.0885317 0
1.15255 -0.0957478 0
1.14688 -0.078523 0
1.14183 -0.0619563 0
1.1064 -0.0927502 0
1.09983 -0.0760919 0
1.09441 -0.0601079 0
1.05734 -0.0885317 0
1.05014 -0.0726659 0
1.04408 -0.0573578 0
1.07314 -0.122169 0
1.06461 -0.105004 0
1.05734 -0.0885317 0
1.02168 -0.115287 0
1.01238 -0.0992003 0
1.00446 -0.0837648 0
0.966869 -0.10787 0
0.956978 -0.092889 0
0.948548 -0.0784794 0
1.05734 -0.0885317 0
1.05014 -0.0726659 0
1.04408 -0.0573578 0
1.00446 -0.0837648 0
0.996774 -0.0688315 0
0.990297 -0.0543759 0
0.948548 -0.0784794 0
0.94045 -0.0644917 0
0.933656 -0.0509491 0
1.14183 -0.0619563 0
1.13703 -0.0458943 0
1.13278 -0.0302563 0
1.09441 -0.0601079 0
1.08904 -0.0445634 0
1.08468 -0.0294327 0
1.04408 -0.0573578 0
1.03833 -0.0424842 0
1.03365 -0.0280136 0
1.13278 -0.0302563 0
1.12864 -0.0149676 0
1.125 0 0
1.08468 -0.0294327 0
1.08024 -0.014573 0
1.07666 0 0
1.03365 -0.0280136 0
1.02904 -0.0138575 0
1.02539 0 0
1.04408 -0.0573578 0
1.03833 -0.0424842 0
1.03365 -0.0280136 0
0.990297 -0.0543759 0
0.984307 -0.0402929 0
0.979434 -0.0266122 0
0.933656 -0.0509491 0
0.92741 -0.0377498 0
0.922359 -0.0249213 0
1.03365 -0.0280136 0
1.02904 -0.0138575 0
1.02539 0 0
0.979434 -0.0266122 0
0.974816 -0.013205 0
0.971191 0 0
0.922359 -0.0249213 0
0.917669 -0.012344 0
0.914062 0 0
0.966869 -0.10787 0
0.956978 -0.092889 0
0.948548 -0.0784794 0
0.908265 -0.0996688 0
0.897935 -0.0859052 0
0.889053 -0.0726259 0
0.846434 -0.0911867 0
0.835749 -0.0786504 0
0.826518 -0.0665286 0
0.948548 -0.0784794 0
0.94045 -0.0644917 0
0.933656 -0.0509491 0
0.889053 -0.0726259 0
0.880683 -0.0597153 0
0.873631 -0.047192 0
0.826518 -0.0665286 0
0.817943 -0.0547242 0
0.8107 -0.0432571 0
0.846434 -0.0911867 0
0.835749 -0.0786504 0
0.826518 -0.0665286 0
0.780869 -0.0818781 0
0.769944 -0.0706693 0
0.760485 -0.0598079 0
0.712059 -0.0726351 0
0.700988 -0.0627394 0
0.691386 -0.0531353 0
0.826518 -0.0665286 0
0.817943 -0.0547242 0
0.8107 -0.0432571 0
0.760485 -0.0598079 0
0.751789 -0.0492034 0
0.744451 -0.0388871 0
0.691386 -0.0531353 0
0.682641 -0.0437458 0
0.67527 -0.0345988 0
0.933656 -0.0509491 0
0.92741 -0.0377498 0
0.922359 -0.0249213 0
0.873631 -0.047192 0
0.867259 -0.0349728 0
0.862116 -0.0230875 0
0.8107 -0.0432571 0
0.804237 -0.0320665 0
0.799019 -0.021177 0
0.922359 -0.0249213 0
0.917669 -0.012344 0
0.914062 0 0
0.862116 -0.0230875 0
0.857499 -0.0114367 0
0.854004 0 0
0.799019 -0.021177 0
0.794443 -0.0105 0
0.791016 0 0
0.8107 -0.0432571 0
0.804237 -0.0320665 0
0.799019 -0.021177 0
0.744451 -0.0388871 0
0.737978 -0.028808 0
0.732782 -0.0190011 0
0.67527 -0.0345988 0
0.668828 -0.0256582 0
0.663677 -0.0169545 0
0.799019 -0.021177 0
0.794443 -0.0105 0
0.791016 0 0
0.732782 -0.0190011 0
0.728347 -0.00939831 0
0.725098 0 0
0.663677 -0.0169545 0
0.659363 -0.00842003 0
0.65625 0 0
0.847546 -0.160108 0
0.825584 -0.148615 0
0.80507 -0.13718 0
0.775944 -0.13711 0
0.753979 -0.127386 0
0.733431 -0.117687 0
0.700222 -0.114911 0
0.678364 -0.10686 0
0.657885 -0.0988143 0
0.80507 -0.13718 0
0.786041 -0.125869 0
0.768556 -0.114749 0
0.733431 -0.117687 0
0.714296 -0.108071 0
0.696687 -0.0986026 0
0.657885 -0.0988143 0
0.638766 -0.0908178 0
0.62115 -0.0829353 0
0.700222 -0.114911 0
0.678364 -0.10686 0
0.657885 -0.0988143 0
0.62051 -0.0917677 0
0.598788 -0.0853466 0
0.578445 -0.0789316 0
0.535789 -0.0695507 0
0.514442 -0.064692 0
0.494447 -0.0598447 0
0.657885 -0.0988143 0
0.638766 -0.0908178 0
0.62115 -0.0829353 0
0.578445 -0.0789316 0
0.559396 -0.0725467 0
0.541849 -0.0662575 0
0.494447 -0.0598447 0
0.475686 -0.0550137 0
0.458408 -0.0502675 0
0.768556 -0.114749 0
0.752352 -0.103821 0
0.737719 -0.0931766 0
0.696687 -0.0986026 0
0.680339 -0.0892789 0
0.665555 -0.0801803 0
0.62115 -0.0829353 0
0.604773 -0.0751544 0
0.589945 -0.0675558 0
0.737719 -0.0931766 0
0.724125 -0.082761 0
0.712059 -0.0726351 0
0.665555 -0.0801803 0
0.651846 -0.0712543 0
0.63967 -0.0625631 0
0.589945 -0.0675558 0
0.576219 -0.0600864 0
0.564026 -0.0528058 0
0.62115 -0.0829353 0
0.604773 -0.0751544 0
0.589945 -0.0675558 0
0.541849 -0.0662575 0
0.525509 -0.0600406 0
0.51072 -0.0539756 0
0.458408 -0.0502675 0
0.442298 -0.0455698 0
0.427723 -0.0409988 0
0.589945 -0.0675558 0
0.576219 -0.0600864 0
0.564026 -0.0528058 0
0.51072 -0.0539756 0
0.497043 -0.0480051 0
0.484907 -0.0421871 0
0.427723 -0.0409988 0
0.414259 -0.0364962 0
0.402322 -0.0321172 0
0.535789 -0.0695507 0
0.514442 -0.064692 0
0.494447 -0.0598447 0
0.444961 -0.0468245 0
0.424173 -0.0434549 0
0.404776 -0.0401189 0
0.338467 -0.0254693 0
0.319695 -0.0236204 0
0.302257 -0.0218116 0
0.494447 -0.0598447 0
0.475686 -0.0550137 0
0.458408 -0.0502675 0
0.404776 -0.0401189 0
0.386551 -0.0367997 0
0.369826 -0.0335664 0
0.302257 -0.0218116 0
0.285901 -0.0200032 0
0.270962 -0.0182641 0
0.338467 -0.0254693 0
0.319695 -0.0236204 0
0.302257 -0.0218116 0
0.198801 -0.00781993 0
0.185571 -0.0071885 0
0.173507 -0.00660667 0
0 0 0
0 0 0
0 0 0
0.302257 -0.0218116 0
0.285901 -0.0200032 0
0.270962 -0.0182641 0
0.173507 -0.00660667 0
0.162142 -0.00600625 0
0.151948 -0.0054617 0
0 0 0
0 0 0
0 0 0
0.458408 -0.0502675 0
0.442298 -0.0455698 0
0.427723 -0.0409988 0
0.369826 -0.0335664 0
0.354224 -0.0303696 0
0.340153 -0.0272815 0
0.270962 -0.0182641 0
0.257049 -0.0165352 0
0.24455 -0.0148847 0
0.427723 -0.0409988 0
0.414259 -0.0364962 0
0.402322 -0.0321172 0
0.340153 -0.0272815 0
0.327168 -0.024243 0
0.315689 -0.0213058 0
0.24455 -0.0148847 0
0.233044 -0.0132573 0
0.222903 -0.0116993 0
0.270962 -0.0182641 0
0.257049 -0.0165352 0
0.24455 -0.0148847 0
0.151948 -0.0054617 0
0.142414 -0.00490098 0
0.133988 -0.0043911 0
0 0 0
0 0 0
0 0 0
0.24455 -0.0148847 0
0.233044 -0.0132573 0
0.222903 -0.0116993 0
0.133988 -0.0043911 0
0.1262 -0.00387491 0
0.119433 -0.00340048 0
0 0 0
0 0 0
0 0 0
0.712059 -0.0726351 0
0.700988 -0.0627394 0
0.691386 -0.0531353 0
0.63967 -0.0625631 0
0.628534 -0.0540517 0
0.618878 -0.04578 0
0.564026 -0.0528058 0
0.552907 -0.045664 0
0.543273 -0.0387189 0
0.691386 -0.0531353 0
0.682641 -0.0437458 0
0.67527 -0.0345988 0
0.618878 -0.04578 0
0.610152 -0.0376768 0
0.602819 -0.0297728 0
0.543273 -0.0387189 0
0.534632 -0.0319093 0
0.527399 -0.0252587 0
0.564026 -0.0528058 0
0.552907 -0.045664 0
0.543273 -0.0387189 0
0.484907 -0.0421871 0
0.473871 -0.0364708 0
0.464331 -0.0309106 0
0.402322 -0.0321172 0
0.391496 -0.0278111 0
0.382159 -0.023625 0
0.543273 -0.0387189 0
0.534632 -0.0319093 0
0.527399 -0.0252587 0
0.464331 -0.0309106 0
0.455837 -0.0254495 0
0.448766 -0.0201087 0
0.382159 -0.023625 0
0.373907 -0.0195082 0
0.367081 -0.015478 0
0.67527 -0.0345988 0
0.668828 -0.0256582 0
0.663677 -0.0169545 0
0.602819 -0.0297728 0
0.596476 -0.0220377 0
0.591447 -0.0145112 0
0.527399 -0.0252587 0
0.521202 -0.0187425 0
0.516332 -0.0123961 0
0.663677 -0.0169545 0
0.659363 -0.00842003 0
0.65625 0 0
0.591447 -0.0145112 0
0.587344 -0.00715576 0
0.584473 0 0
0.516332 -0.0123961 0
0.512434 -0.00617764 0
0.509766 0 0
0.527399 -0.0252587 0
0.521202 -0.0187425 0
0.516332 -0.0123961 0
0.448766 -0.0201087 0
0.44277 -0.0148644 0
0.438116 -0.00976007 0
0.367081 -0.015478 0
0.361358 -0.0115103 0
0.356979 -0.00763297 0
0.516332 -0.0123961 0
0.512434 -0.00617764 0
0.509766 0 0
0.438116 -0.00976007 0
0.434495 -0.0047848 0
0.432129 0 0
0.356979 -0.00763297 0
0.353654 -0.00383957 0
0.351562 0 0
0.402322 -0.0321172 0
0.391496 -0.0278111 0
0.382159 -0.023625 0
0.315689 -0.0213058 0
0.305303 -0.0184215 0
0.296377 -0.0156273 0
0.222903 -0.0116993 0
0.213752 -0.0101676 0
0.205905 -0.00869298 0
0.382159 -0.023625 0
0.373907 -0.0195082 0
0.367081 -0.015478 0
0.296377 -0.0156273 0
0.288536 -0.0128777 0
0.282095 -0.0101849 0
0.205905 -0.00869298 0
0.199039 -0.00724034 0
0.193421 -0.00582167 0
0.222903 -0.0116993 0
0.213752 -0.0101676 0
0.205905 -0.00869298 0
0.119433 -0.00340048 0
0.113298 -0.00292696 0
0.108108 -0.0024838 0
0 0 0
0 0 0
0 0 0
0.205905 -0.00869298 0
0.199039 -0.00724034 0
0.193421 -0.00582167 0
0.108108 -0.0024838 0
0.103532 -0.00203878 0
0.0998212 -0.00161559 0
0 0 0
0 0 0
0 0 0
0.367081 -0.015478 0
0.361358 -0.0115103 0
0.356979 -0.00763297 0
0.282095 -0.0101849 0
0.276759 -0.00751999 0
0.272752 -0.00490489 0
0.193421 -0.00582167 0
0.188819 -0.00440611 0
0.185421 -0.00298728 0
0.356979 -0.00763297 0
0.353654 -0.00383957 0
0.351562 0 0
0.272752 -0.00490489 0
0.269799 -0.00234899 0
0.268066 0 0
0.185421 -0.00298728 0
0.182989 -0.00157133 0
0.181641 0 0
0.193421 -0.00582167 0
0.188819 -0.00440611 0
0.185421 -0.00298728 0
0.0998212 -0.00161559 0
0.0967622 -0.00119518 0
0.0945865 -0.000766745 0
0 0 0
0 0 0
0 0 0
0.185421 -0.00298728 0
0.182989 -0.00157133 0
0.181641 0 0
0.0945865 -0.000766745 0
0.0930176 -0.000308851 0
0.0922852 0 0
0 0 0
0 0 0
0 0 0
1.74289 -0.52682 0
1.69317 -0.539181 0
1.65401 -0.54802 0
1.68437 -0.472374 0
1.64567 -0.485891 0
1.60186 -0.493767 0
1.62346 -0.423876 0
1.5859 -0.436607 0
1.54808 -0.445897 0
1.65401 -0.54802 0
1.607 -0.551088 0
1.56508 -0.54981 0
1.60186 -0.493767 0
1.56199 -0.498577 0
1.51924 -0.498169 0
1.54808 -0.445897 0
1.51049 -0.451307 0
1.47263 -0.453005 0
1.62346 -0.423876 0
1.5859 -0.436607 0
1.54808 -0.445897 0
1.57116 -0.381058 0
1.53695 -0.392245 0
1.50218 -0.400474 0
1.51094 -0.338153 0
1.47842 -0.348568 0
1.44459 -0.35626 0
1.54808 -0.445897 0
1.51049 -0.451307 0
1.47263 -0.453005 0
1.50218 -0.400474 0
1.46741 -0.405354 0
1.43232 -0.407168 0
1.44459 -0.35626 0
1.41126 -0.361216 0
1.37721 -0.363444 0
1.56508 -0.54981 0
1.52287 -0.543682 0
1.48371 -0.532898 0
1.51924 -0.498169 0
1.48151 -0.494425 0
1.44249 -0.486638 0
1.47263 -0.453005 0
1.43781 -0.451285 0
1.40278 -0.446066 0
1.48371 -0.532898 0
1.44617 -0.519054 0
1.41269 -0.502274 0
1.44249 -0.486638 0
1.4086 -0.476269 0
1.37479 -0.462638 0
1.40278 -0.446066 0
1.37146 -0.438005 0
1.34019 -0.427049 0
1.47263 -0.453005 0
1.43781 -0.451285 0
1.40278 -0.446066 0
1.43232 -0.407168 0
1.3988 -0.405798 0
1.36555 -0.401688 0
1.37721 -0.363444 0
1.34504 -0.363109 0
1.31278 -0.360341 0
1.40278 -0.446066 0
1.37146 -0.438005 0
1.34019 -0.427049 0
1.36555 -0.401688 0
1.33431 -0.395034 0
1.30382 -0.386123 0
1.31278 -0.360341 0
1.28277 -0.355417 0
1.25325 -0.348414 0
1.51094 -0.338153 0
1.47842 -0.348568 0
1.44459 -0.35626 0
1.44087 -0.300317 0
1.41012 -0.310184 0
1.37843 -0.317677 0
1.37384 -0.264336 0
1.34488 -0.27373 0
1.31484 -0.280987 0
1.44459 -0.35626 0
1.41126 -0.361216 0
1.37721 -0.363444 0
1.37843 -0.317677 0
1.34726 -0.322671 0
1.31554 -0.32525 0
1.31484 -0.280987 0
1.28525 -0.285964 0
1.25501 -0.28878 0
1.37384 -0.264336 0
1.34488 -0.27373 0
1.31484 -0.280987 0
1.30686 -0.228847 0
1.27889 -0.237427 0
1.24978 -0.244105 0
1.23322 -0.195005 0
1.20627 -0.202902 0
1.17812 -0.209176 0
1.31484 -0.280987 0
1.28525 -0.285964 0
1.25501 -0.28878 0
1.24978 -0.244105 0
1.22103 -0.248812 0
1.19156 -0.251645 0
1.17812 -0.209176 0
1.15036 -0.213762 0
1.12184 -0.216727 0
1.37721 -0.363444 0
1.34504 -0.363109 0
1.31278 -0.360341 0
1.31554 -0.32525 0
1.28543 -0.325466 0
1.25524 -0.323517 0
1.25501 -0.28878 0
1.22604 -0.289463 0
1.19689 -0.288206 0
1.31278 -0.360341 0
1.28277 -0.355417 0
1.25325 -0.348414 0
1.25524 -0.323517 0
1.22689 -0.319581 0
1.1989 -0.313756 0
1.19689 -0.288206 0
1.16926 -0.285147 0
1.14187 -0.280398 0
1.25501 -0.28878 0
1.22604 -0.289463 0
1.19689 -0.288206 0
1.19156 -0.251645 0
1.16325 -0.252669 0
1.1347 -0.251993 0
1.12184 -0.216727 0
1.09439 -0.218117 0
1.06664 -0.218019 0
1.19689 -0.288206 0
1.16926 -0.285147 0
1.14187 -0.280398 0
1.1347 -0.251993 0
1.10756 -0.249779 0
1.08062 -0.24606 0
1.06664 -0.218019 0
1.04016 -0.216554 0
1.01379 -0.213747 0
1.41269 -0.502274 0
1.38117 -0.483481 0
1.35393 -0.462375 0
1.37479 -0.462638 0
1.34653 -0.447248 0
1.31901 -0.429894 0
1.34019 -0.427049 0
1.31341 -0.414272 0
1.2871 -0.399365 0
1.35393 -0.462375 0
1.32859 -0.440623 0
1.30697 -0.418031 0
1.31901 -0.429894 0
1.29604 -0.411652 0
1.2742 -0.391955 0
1.2871 -0.399365 0
1.26432 -0.38319 0
1.24232 -0.365641 0
1.34019 -0.427049 0
1.31341 -0.414272 0
1.2871 -0.399365 0
1.30382 -0.386123 0
1.27627 -0.375279 0
1.24987 -0.362756 0
1.25325 -0.348414 0
1.2267 -0.339731 0
1.20116 -0.329483 0
1.2871 -0.399365 0
1.26432 -0.38319 0
1.24232 -0.365641 0
1.24987 -0.362756 0
1.22612 -0.349042 0
1.20383 -0.334229 0
1.20116 -0.329483 0
1.17812 -0.318056 0
1.15634 -0.305466 0
1.30697 -0.418031 0
1.28804 -0.395355 0
1.27266 -0.372064 0
1.2742 -0.391955 0
1.25659 -0.371814 0
1.24057 -0.351016 0
1.24232 -0.365641 0
1.22392 -0.347555 0
1.20673 -0.32879 0
1.27266 -0.372064 0
1.25914 -0.349569 0
1.24813 -0.327424 0
1.24057 -0.351016 0
1.22717 -0.330364 0
1.21542 -0.309374 0
1.20673 -0.32879 0
1.19212 -0.31011 0
1.17891 -0.291406 0
1.24232 -0.365641 0
1.22392 -0.347555 0
1.20673 -0.32879 0
1.20383 -0.334229 0
1.18455 -0.318758 0
1.16697 -0.302659 0
1.15634 -0.305466 0
1.13724 -0.292075 0
1.1196 -0.277969 0
1.20673 -0.32879 0
1.19212 -0.31011 0
1.17891 -0.291406 0
1.16697 -0.302659 0
1.15147 -0.286303 0
1.13767 -0.269665 0
1.1196 -0.277969 0
1.10374 -0.263462 0
1.08942 -0.248608 0
1.25325 -0.348414 0
1.2267 -0.339731 0
1.20116 -0.329483 0
1.1989 -0.313756 0
1.17334 -0.306359 0
1.14853 -0.297533 0
1.14187 -0.280398 0
1.11657 -0.274236 0
1.09195 -0.266785 0
1.20116 -0.329483 0
1.17812 -0.318056 0
1.15634 -0.305466 0
1.14853 -0.297533 0
1.1258 -0.287613 0
1.10411 -0.276595 0
1.09195 -0.266785 0
1.06925 -0.258329 0
1.04755 -0.248883 0
1.14187 -0.280398 0
1.11657 -0.274236 0
1.09195 -0.266785 0
1.08062 -0.24606 0
1.05558 -0.241095 0
1.03115 -0.234939 0
1.01379 -0.213747 0
0.989087 -0.209811 0
0.964897 -0.204799 0
1.09195 -0.266785 0
1.06925 -0.258329 0
1.04755 -0.248883 0
1.03115 -0.234939 0
1.00846 -0.227861 0
0.986677 -0.219854 0
0.964897 -0.204799 0
0.942244 -0.198941 0
0.92042 -0.192226 0
1.15634 -0.305466 0
1.13724 -0.292075 0
1.1196 -0.277969 0
1.10411 -0.276595 0
1.08477 -0.264874 0
1.06676 -0.252522 0
1.04755 -0.248883 0
1.02801 -0.238768 0
1.00973 -0.22803 0
1.1196 -0.277969 0
1.10374 -0.263462 0
1.08942 -0.248608 0
1.06676 -0.252522 0
1.05046 -0.239827 0
1.0356 -0.226703 0
1.00973 -0.22803 0
0.993053 -0.216875 0
0.977742 -0.205289 0
1.04755 -0.248883 0
1.02801 -0.238768 0
1.00973 -0.22803 0
0.986677 -0.219854 0
0.966821 -0.211203 0
0.948132 -0.201936 0
0.92042 -0.192226 0
0.900345 -0.184913 0
0.881382 -0.177032 0
1.00973 -0.22803 0
0.993053 -0.216875 0
0.977742 -0.205289 0
0.948132 -0.201936 0
0.930926 -0.192276 0
0.915024 -0.182214 0
0.881382 -0.177032 0
0.86383 -0.168771 0
0.847546 -0.160108 0
1.23322 -0.195005 0
1.20627 -0.202902 0
1.17812 -0.209176 0
1.1582 -0.164534 0
1.13215 -0.171518 0
1.10488 -0.177117 0
1.08252 -0.13436 0
1.05691 -0.140574 0
1.03002 -0.145603 0
1.17812 -0.209176 0
1.15036 -0.213762 0
1.12184 -0.216727 0
1.10488 -0.177117 0
1.07794 -0.181244 0
1.05018 -0.183967 0
1.03002 -0.145603 0
1.00344 -0.149372 0
0.976009 -0.151947 0
1.08252 -0.13436 0
1.05691 -0.140574 0
1.03002 -0.145603 0
1.0039 -0.105165 0
0.978721 -0.110508 0
0.952207 -0.114858 0
0.918963 -0.0770117 0
0.894283 -0.0814664 0
0.868172 -0.0851361 0
1.03002 -0.145603 0
1.00344 -0.149372 0
0.976009 -0.151947 0
0.952207 -0.114858 0
0.925968 -0.118161 0
0.898816 -0.12047 0
0.868172 -0.0851361 0
0.842311 -0.0879726 0
0.815467 -0.0900138 0
1.12184 -0.216727 0
1.09439 -0.218117 0
1.06664 -0.218019 0
1.05018 -0.183967 0
1.02333 -0.185322 0
0.996109 -0.185395 0
0.976009 -0.151947 0
0.949395 -0.153365 0
0.922372 -0.153692 0
1.06664 -0.218019 0
1.04016 -0.216554 0
1.01379 -0.213747 0
0.996109 -0.185395 0
0.969996 -0.184297 0
0.943925 -0.182041 0
0.922372 -0.153692 0
0.896383 -0.153029 0
0.87041 -0.151378 0
0.976009 -0.151947 0
0.949395 -0.153365 0
0.922372 -0.153692 0
0.898816 -0.12047 0
0.872397 -0.121825 0
0.845518 -0.122268 0
0.815467 -0.0900138 0
0.789279 -0.0912971 0
0.762573 -0.0918492 0
0.922372 -0.153692 0
0.896383 -0.153029 0
0.87041 -0.151378 0
0.845518 -0.122268 0
0.81958 -0.121891 0
0.793607 -0.120685 0
0.762573 -0.0918492 0
0.736732 -0.091753 0
0.710816 -0.0909885 0
0.918963 -0.0770117 0
0.894283 -0.0814664 0
0.868172 -0.0851361 0
0.822651 -0.0505178 0
0.799204 -0.0539205 0
0.774138 -0.0567418 0
0.680917 -0.0250936 0
0.660978 -0.0272866 0
0.639147 -0.0291358 0
0.868172 -0.0851361 0
0.842311 -0.0879726 0
0.815467 -0.0900138 0
0.774138 -0.0567418 0
0.749151 -0.0589452 0
0.723032 -0.0605525 0
0.639147 -0.0291358 0
0.617178 -0.0306211 0
0.593884 -0.0317447 0
0.680917 -0.0250936 0
0.660978 -0.0272866 0
0.639147 -0.0291358 0
0.435115 -0.00773759 0
0.422983 -0.00852991 0
0.408951 -0.00917087 0
0 0 0
0 0 0
0 0 0
0.639147 -0.0291358 0
0.617178 -0.0306211 0
0.593884 -0.0317447 0
0.408951 -0.00917087 0
0.39465 -0.00969459 0
0.378976 -0.0100614 0
0 0 0
0 0 0
0 0 0
0.815467 -0.0900138 0
0.789279 -0.0912971 0
0.762573 -0.0918492 0
0.723032 -0.0605525 0
0.697416 -0.0616024 0
0.671176 -0.0621059 0
0.593884 -0.0317447 0
0.57087 -0.032546 0
0.547093 -0.0330099 0
0.762573 -0.0918492 0
0.736732 -0.091753 0
0.710816 -0.0909885 0
0.671176 -0.0621059 0
0.645687 -0.062139 0