# vtk DataFile Version 3.0
#This file was generated by the deal.II library on 2025/1/8 at 0:10:57
ASCII
DATASET UNSTRUCTURED_GRID

POINTS 34560 double
1.1 1.1 0
1.03125 1.09531 0
0.9625 1.09063 0
1.09375 1.03125 0
1.02539 1.02686 0
0.957031 1.02246 0
1.0875 0.9625 0
1.01953 0.958398 0
0.951563 0.954297 0
0.9625 1.09063 0
0.89375 1.08594 0
0.825 1.08125 0
0.957031 1.02246 0
0.888672 1.01807 0
0.820312 1.01367 0
0.951563 0.954297 0
0.883594 0.950195 0
0.815625 0.946094 0
1.0875 0.9625 0
1.01953 0.958398 0
0.951563 0.954297 0
1.08125 0.89375 0
1.01367 0.889941 0
0.946094 0.886133 0
1.075 0.825 0
1.00781 0.821484 0
0.940625 0.817969 0
0.951563 0.954297 0
0.883594 0.950195 0
0.815625 0.946094 0
0.946094 0.886133 0
0.878516 0.882324 0
0.810938 0.878516 0
0.940625 0.817969 0
0.873438 0.814453 0
0.80625 0.810937 0
0.825 1.08125 0
0.75625 1.07656 0
0.6875 1.07187 0
0.820312 1.01367 0
0.751953 1.00928 0
0.683594 1.00488 0
0.815625 0.946094 0
0.747656 0.941992 0
0.679688 0.937891 0
0.6875 1.07187 0
0.61875 1.06719 0
0.55 1.0625 0
0.683594 1.00488 0
0.615234 1.00049 0
0.546875 0.996094 0
0.679688 0.937891 0
0.611719 0.933789 0
0.54375 0.929688 0
0.815625 0.946094 0
0.747656 0.941992 0
0.679688 0.937891 0
0.810938 0.878516 0
0.743359 0.874707 0
0.675781 0.870898 0
0.80625 0.810937 0
0.739063 0.807422 0
0.671875 0.803906 0
0.679688 0.937891 0
0.611719 0.933789 0
0.54375 0.929688 0
0.675781 0.870898 0
0.608203 0.86709 0
0.540625 0.863281 0
0.671875 0.803906 0
0.604688 0.800391 0
0.5375 0.796875 0
1.075 0.825 0
1.00781 0.821484 0
0.940625 0.817969 0
1.06875 0.75625 0
1.00195 0.753027 0
0.935156 0.749805 0
1.0625 0.6875 0
0.996094 0.68457 0
0.929688 0.681641 0
0.940625 0.817969 0
0.873438 0.814453 0
0.80625 0.810937 0
0.935156 0.749805 0
0.868359 0.746582 0
0.801563 0.743359 0
0.929688 0.681641 0
0.863281 0.678711 0
0.796875 0.675781 0
1.0625 0.6875 0
0.996094 0.68457 0
0.929688 0.681641 0
1.05625 0.61875 0
0.990234 0.616113 0
0.924219 0.613477 0
1.05 0.55 0
0.984375 0.547656 0
0.91875 0.545313 0
0.929688 0.681641 0
0.863281 0.678711 0
0.796875 0.675781 0
0.924219 0.613477 0
0.858203 0.61084 0
0.792188 0.608203 0
0.91875 0.545313 0
0.853125 0.542969 0
0.7875 0.540625 0
0.80625 0.810937 0
0.739063 0.807422 0
0.671875 0.803906 0
0.801563 0.743359 0
0.734766 0.740137 0
0.667969 0.736914 0
0.796875 0.675781 0
0.730469 0.672852 0
0.664062 0.669922 0
0.671875 0.803906 0
0.604688 0.800391 0
0.5375 0.796875 0
0.667969 0.736914 0
0.601172 0.733691 0
0.534375 0.730469 0
0.664062 0.669922 0
0.597656 0.666992 0
0.53125 0.664062 0
0.796875 0.675781 0
0.730469 0.672852 0
0.664062 0.669922 0
0.792188 0.608203 0
0.726172 0.605566 0
0.660156 0.60293 0
0.7875 0.540625 0
0.721875 0.538281 0
0.65625 0.535937 0
0.664062 0.669922 0
0.597656 0.666992 0
0.53125 0.664062 0
0.660156 0.60293 0
0.594141 0.600293 0
0.528125 0.597656 0
0.65625 0.535937 0
0.590625 0.533594 0
0.525 0.53125 0
0.55 1.0625 0
0.48125 1.05781 0
0.4125 1.05313 0
0.546875 0.996094 0
0.478516 0.991699 0
0.410156 0.987305 0
0.54375 0.929688 0
0.475781 0.925586 0
0.407813 0.921484 0
0.4125 1.05313 0
0.34375 1.04844 0
0.275 1.04375 0
0.410156 0.987305 0
0.341797 0.98291 0
0.273438 0.978516 0
0.407813 0.921484 0
0.339844 0.917383 0
0.271875 0.913281 0
0.54375 0.929688 0
0.475781 0.925586 0
0.407813 0.921484 0
0.540625 0.863281 0
0.473047 0.859473 0
0.405469 0.855664 0
0.5375 0.796875 0
0.470313 0.793359 0
0.403125 0.789844 0
0.407813 0.921484 0
0.339844 0.917383 0
0.271875 0.913281 0
0.405469 0.855664 0
0.337891 0.851855 0
0.270313 0.848047 0
0.403125 0.789844 0
0.335938 0.786328 0
0.26875 0.782813 0
0.275 1.04375 0
0.20625 1.03906 0
0.1375 1.03437 0
0.273438 0.978516 0
0.205078 0.974121 0
0.136719 0.969727 0
0.271875 0.913281 0
0.203906 0.90918 0
0.135938 0.905078 0
0.1375 1.03437 0
0.06875 1.02969 0
0 1.025 0
0.136719 0.969727 0
0.0683594 0.965332 0
0 0.960937 0
0.135938 0.905078 0
0.0679688 0.900977 0
0 0.896875 0
0.271875 0.913281 0
0.203906 0.90918 0
0.135938 0.905078 0
0.270313 0.848047 0
0.202734 0.844238 0
0.135156 0.84043 0
0.26875 0.782813 0
0.201563 0.779297 0
0.134375 0.775781 0
0.135938 0.905078 0
0.0679688 0.900977 0
0 0.896875 0
0.135156 0.84043 0
0.0675781 0.836621 0
0 0.832812 0
0.134375 0.775781 0
0.0671875 0.772266 0
0 0.76875 0
0.5375 0.796875 0
0.470313 0.793359 0
0.403125 0.789844 0
0.534375 0.730469 0
0.467578 0.727246 0
0.400781 0.724023 0
0.53125 0.664062 0
0.464844 0.661133 0
0.398438 0.658203 0
0.403125 0.789844 0
0.335938 0.786328 0
0.26875 0.782813 0
0.400781 0.724023 0
0.333984 0.720801 0
0.267188 0.717578 0
0.398438 0.658203 0
0.332031 0.655273 0
0.265625 0.652344 0
0.53125 0.664062 0
0.464844 0.661133 0
0.398438 0.658203 0
0.528125 0.597656 0
0.462109 0.59502 0
0.396094 0.592383 0
0.525 0.53125 0
0.459375 0.528906 0
0.39375 0.526563 0
0.398438 0.658203 0
0.332031 0.655273 0
0.265625 0.652344 0
0.396094 0.592383 0
0.330078 0.589746 0
0.264062 0.587109 0
0.39375 0.526563 0
0.328125 0.524219 0
0.2625 0.521875 0
0.26875 0.782813 0
0.201563 0.779297 0
0.134375 0.775781 0
0.267188 0.717578 0
0.200391 0.714355 0
0.133594 0.711133 0
0.265625 0.652344 0
0.199219 0.649414 0
0.132812 0.646484 0
0.134375 0.775781 0
0.0671875 0.772266 0
0 0.76875 0
0.133594 0.711133 0
0.0667969 0.70791 0
0 0.704687 0
0.132812 0.646484 0
0.0664062 0.643555 0
0 0.640625 0
0.265625 0.652344 0
0.199219 0.649414 0
0.132812 0.646484 0
0.264062 0.587109 0
0.198047 0.584473 0
0.132031 0.581836 0
0.2625 0.521875 0
0.196875 0.519531 0
0.13125 0.517187 0
0.132812 0.646484 0
0.0664062 0.643555 0
0 0.640625 0
0.132031 0.581836 0
0.0660156 0.579199 0
0 0.576562 0
0.13125 0.517187 0
0.065625 0.514844 0
0 0.5125 0
1.05 0.55 0
0.984375 0.547656 0
0.91875 0.545313 0
1.04375 0.48125 0
0.978516 0.479199 0
0.913281 0.477148 0
1.0375 0.4125 0
0.972656 0.410742 0
0.907813 0.408984 0
0.91875 0.545313 0
0.853125 0.542969 0
0.7875 0.540625 0
0.913281 0.477148 0
0.848047 0.475098 0
0.782813 0.473047 0
0.907813 0.408984 0
0.842969 0.407227 0
0.778125 0.405469 0
1.0375 0.4125 0
0.972656 0.410742 0
0.907813 0.408984 0
1.03125 0.34375 0
0.966797 0.342285 0
0.902344 0.34082 0
1.025 0.275 0
0.960937 0.273828 0
0.896875 0.272656 0
0.907813 0.408984 0
0.842969 0.407227 0
0.778125 0.405469 0
0.902344 0.34082 0
0.837891 0.339355 0
0.773438 0.337891 0
0.896875 0.272656 0
0.832812 0.271484 0
0.76875 0.270313 0
0.7875 0.540625 0
0.721875 0.538281 0
0.65625 0.535937 0
0.782813 0.473047 0
0.717578 0.470996 0
0.652344 0.468945 0
0.778125 0.405469 0
0.713281 0.403711 0
0.648438 0.401953 0
0.65625 0.535937 0
0.590625 0.533594 0
0.525 0.53125 0
0.652344 0.468945 0
0.587109 0.466895 0
0.521875 0.464844 0
0.648438 0.401953 0
0.583594 0.400195 0
0.51875 0.398438 0
0.778125 0.405469 0
0.713281 0.403711 0
0.648438 0.401953 0
0.773438 0.337891 0
0.708984 0.336426 0
0.644531 0.334961 0
0.76875 0.270313 0
0.704687 0.269141 0
0.640625 0.267969 0
0.648438 0.401953 0
0.583594 0.400195 0
0.51875 0.398438 0
0.644531 0.334961 0
0.580078 0.333496 0
0.515625 0.332031 0
0.640625 0.267969 0
0.576562 0.266797 0
0.5125 0.265625 0
1.025 0.275 0
0.960937 0.273828 0
0.896875 0.272656 0
1.01875 0.20625 0
0.955078 0.205371 0
0.891406 0.204492 0
1.0125 0.1375 0
0.949219 0.136914 0
0.885937 0.136328 0
0.896875 0.272656 0
0.832812 0.271484 0
0.76875 0.270313 0
0.891406 0.204492 0
0.827734 0.203613 0
0.764062 0.202734 0
0.885937 0.136328 0
0.822656 0.135742 0
0.759375 0.135156 0
1.0125 0.1375 0
0.949219 0.136914 0
0.885937 0.136328 0
1.00625 0.06875 0
0.943359 0.068457 0
0.880469 0.0681641 0
1 0 0
0.9375 0 0
0.875 0 0
0.885937 0.136328 0
0.822656 0.135742 0
0.759375 0.135156 0
0.880469 0.0681641 0
0.817578 0.0678711 0
0.754687 0.0675781 0
0.875 0 0
0.8125 0 0
0.75 0 0
0.76875 0.270313 0
0.704687 0.269141 0
0.640625 0.267969 0
0.764062 0.202734 0
0.700391 0.201855 0
0.636719 0.200977 0
0.759375 0.135156 0
0.696094 0.13457 0
0.632812 0.133984 0
0.640625 0.267969 0
0.576562 0.266797 0
0.5125 0.265625 0
0.636719 0.200977 0
0.573047 0.200098 0
0.509375 0.199219 0
0.632812 0.133984 0
0.569531 0.133398 0
0.50625 0.132812 0
0.759375 0.135156 0
0.696094 0.13457 0
0.632812 0.133984 0
0.754687 0.0675781 0
0.691797 0.0672852 0
0.628906 0.0669922 0
0.75 0 0
0.6875 0 0
0.625 0 0
0.632812 0.133984 0
0.569531 0.133398 0
0.50625 0.132812 0
0.628906 0.0669922 0
0.566016 0.0666992 0
0.503125 0.0664062 0
0.625 0 0
0.5625 0 0
0.5 0 0
0.525 0.53125 0
0.459375 0.528906 0
0.39375 0.526563 0
0.521875 0.464844 0
0.456641 0.462793 0
0.391406 0.460742 0
0.51875 0.398438 0
0.453906 0.39668 0
0.389063 0.394922 0
0.39375 0.526563 0
0.328125 0.524219 0
0.2625 0.521875 0
0.391406 0.460742 0
0.326172 0.458691 0
0.260938 0.456641 0
0.389063 0.394922 0
0.324219 0.393164 0
0.259375 0.391406 0
0.51875 0.398438 0
0.453906 0.39668 0
0.389063 0.394922 0
0.515625 0.332031 0
0.451172 0.330566 0
0.386719 0.329102 0
0.5125 0.265625 0
0.448437 0.264453 0
0.384375 0.263281 0
0.389063 0.394922 0
0.324219 0.393164 0
0.259375 0.391406 0
0.386719 0.329102 0
0.322266 0.327637 0
0.257812 0.326172 0
0.384375 0.263281 0
0.320312 0.262109 0
0.25625 0.260937 0
0.2625 0.521875 0
0.196875 0.519531 0
0.13125 0.517187 0
0.260938 0.456641 0
0.195703 0.45459 0
0.130469 0.452539 0
0.259375 0.391406 0
0.194531 0.389648 0
0.129688 0.387891 0
0.13125 0.517187 0
0.065625 0.514844 0
0 0.5125 0
0.130469 0.452539 0
0.0652344 0.450488 0
0 0.448437 0
0.129688 0.387891 0
0.0648438 0.386133 0
0 0.384375 0
0.259375 0.391406 0
0.194531 0.389648 0
0.129688 0.387891 0
0.257812 0.326172 0
0.193359 0.324707 0
0.128906 0.323242 0
0.25625 0.260937 0
0.192187 0.259766 0
0.128125 0.258594 0
0.129688 0.387891 0
0.0648438 0.386133 0
0 0.384375 0
0.128906 0.323242 0
0.0644531 0.321777 0
0 0.320312 0
0.128125 0.258594 0
0.0640625 0.257422 0
0 0.25625 0
0.5125 0.265625 0
0.448437 0.264453 0
0.384375 0.263281 0
0.509375 0.199219 0
0.445703 0.19834 0
0.382031 0.197461 0
0.50625 0.132812 0
0.442969 0.132227 0
0.379688 0.131641 0
0.384375 0.263281 0
0.320312 0.262109 0
0.25625 0.260937 0
0.382031 0.197461 0
0.318359 0.196582 0
0.254687 0.195703 0
[...]
POINT_DATA 34560
VECTORS v double
1.19573 -0.232753 0
1.18603 -0.203545 0
1.17805 -0.177415 0
1.1622 -0.22084 0
1.15064 -0.194764 0
1.14127 -0.170458 0
1.1254 -0.208456 0
1.11267 -0.184477 0
1.10155 -0.162016 0
1.17805 -0.177415 0
1.17139 -0.153095 0
1.16609 -0.131444 0
1.14127 -0.170458 0
1.13282 -0.148063 0
1.12629 -0.127639 0
1.10155 -0.162016 0
1.0918 -0.141242 0
1.08353 -0.12208 0
1.1254 -0.208456 0
1.11267 -0.184477 0
1.10155 -0.162016 0
1.08282 -0.19279 0
1.06854 -0.171351 0
1.05613 -0.15116 0
1.03366 -0.177826 0
1.01866 -0.158628 0
1.00542 -0.140387 0
1.10155 -0.162016 0
1.0918 -0.141242 0
1.08353 -0.12208 0
1.05613 -0.15116 0
1.04501 -0.132326 0
1.03556 -0.114856 0
1.00542 -0.140387 0
0.993543 -0.123257 0
0.983282 -0.107251 0
1.16609 -0.131444 0
1.16129 -0.111701 0
1.15748 -0.0942497 0
1.12629 -0.127639 0
1.1199 -0.109056 0
1.11509 -0.0923656 0
1.08353 -0.12208 0
1.07594 -0.104638 0
1.06964 -0.0888013 0
1.15748 -0.0942497 0
1.15372 -0.0786382 0
1.15058 -0.0650099 0
1.11509 -0.0923656 0
1.10995 -0.0773978 0
1.106 -0.0642031 0
1.06964 -0.0888013 0
1.06347 -0.0746226 0
1.05833 -0.0619716 0
1.08353 -0.12208 0
1.07594 -0.104638 0
1.06964 -0.0888013 0
1.03556 -0.114856 0
1.02684 -0.0987848 0
1.01952 -0.0841536 0
0.983282 -0.107251 0
0.973811 -0.092462 0
0.965736 -0.0789033 0
1.06964 -0.0888013 0
1.06347 -0.0746226 0
1.05833 -0.0619716 0
1.01952 -0.0841536 0
1.01249 -0.0709357 0
1.00655 -0.0590748 0
0.965736 -0.0789033 0
0.95806 -0.0665969 0
0.951504 -0.0555047 0
1.03366 -0.177826 0
1.01866 -0.158628 0
1.00542 -0.140387 0
0.979178 -0.161976 0
0.963701 -0.144912 0
0.949925 -0.128585 0
0.920272 -0.146616 0
0.904473 -0.131443 0
0.890275 -0.116846 0
1.00542 -0.140387 0
0.993543 -0.123257 0
0.983282 -0.107251 0
0.949925 -0.128585 0
0.937465 -0.113163 0
0.926564 -0.0986836 0
0.890275 -0.116846 0
0.877386 -0.103001 0
0.865997 -0.0899408 0
0.920272 -0.146616 0
0.904473 -0.131443 0
0.890275 -0.116846 0
0.856302 -0.130026 0
0.840287 -0.116794 0
0.825858 -0.104005 0
0.787649 -0.114326 0
0.771656 -0.10284 0
0.757187 -0.0916779 0
0.890275 -0.116846 0
0.877386 -0.103001 0
0.865997 -0.0899408 0
0.825858 -0.104005 0
0.812699 -0.0918148 0
0.801019 -0.080267 0
0.757187 -0.0916779 0
0.743952 -0.0809909 0
0.732148 -0.0708266 0
0.983282 -0.107251 0
0.973811 -0.092462 0
0.965736 -0.0789033 0
0.926564 -0.0986836 0
0.916517 -0.0852409 0
0.907819 -0.0728557 0
0.865997 -0.0899408 0
0.855516 -0.0777704 0
0.84635 -0.066509 0
0.965736 -0.0789033 0
0.95806 -0.0665969 0
0.951504 -0.0555047 0
0.907819 -0.0728557 0
0.899667 -0.0615713 0
0.892611 -0.05136 0
0.84635 -0.066509 0
0.837843 -0.0562177 0
0.830416 -0.0468734 0
0.865997 -0.0899408 0
0.855516 -0.0777704 0
0.84635 -0.066509 0
0.801019 -0.080267 0
0.790264 -0.069458 0
0.780808 -0.0594192 0
0.732148 -0.0708266 0
0.721278 -0.061285 0
0.711673 -0.0523942 0
0.84635 -0.066509 0
0.837843 -0.0562177 0
0.830416 -0.0468734 0
0.780808 -0.0594192 0
0.772087 -0.0502129 0
0.76444 -0.0418331 0
0.711673 -0.0523942 0
0.702865 -0.044228 0
0.695116 -0.036781 0
1.15058 -0.0650099 0
1.14728 -0.0530231 0
1.14435 -0.0426394 0
1.106 -0.0642031 0
1.10162 -0.0525624 0
1.09811 -0.0423929 0
1.05833 -0.0619716 0
1.05316 -0.0508175 0
1.0488 -0.0410066 0
1.14435 -0.0426394 0
1.14117 -0.0335341 0
1.13814 -0.0256136 0
1.09811 -0.0423929 0
1.09409 -0.0334483 0
1.09068 -0.0256316 0
1.0488 -0.0410066 0
1.04421 -0.0324003 0
1.04021 -0.0248112 0
1.05833 -0.0619716 0
1.05316 -0.0508175 0
1.0488 -0.0410066 0
1.00655 -0.0590748 0
1.00075 -0.0485404 0
0.99578 -0.0392689 0
0.951504 -0.0555047 0
0.945177 -0.045633 0
0.939718 -0.0369105 0
1.0488 -0.0410066 0
1.04421 -0.0324003 0
1.04021 -0.0248112 0
0.99578 -0.0392689 0
0.990783 -0.0311103 0
0.986402 -0.0238759 0
0.939718 -0.0369105 0
0.934368 -0.0292249 0
0.929673 -0.0224189 0
1.13814 -0.0256136 0
1.13493 -0.0184783 0
1.13177 -0.0120168 0
1.09068 -0.0256316 0
1.08695 -0.0185837 0
1.08365 -0.0121474 0
1.04021 -0.0248112 0
1.03616 -0.0179684 0
1.03258 -0.0117197 0
1.13177 -0.0120168 0
1.1284 -0.00585979 0
1.125 0 0
1.08365 -0.0121474 0
1.08002 -0.00597004 0
1.07666 0 0
1.03258 -0.0117197 0
1.0288 -0.00575173 0
1.02539 0 0
1.04021 -0.0248112 0
1.03616 -0.0179684 0
1.03258 -0.0117197 0
0.986402 -0.0238759 0
0.982131 -0.0173307 0
0.978359 -0.0113658 0
0.929673 -0.0224189 0
0.925186 -0.0162771 0
0.92124 -0.0106691 0
1.03258 -0.0117197 0
1.0288 -0.00575173 0
1.02539 0 0
0.978359 -0.0113658 0
0.974588 -0.00563366 0
0.971191 0 0
0.92124 -0.0106691 0
0.917432 -0.00526995 0
0.914062 0 0
0.951504 -0.0555047 0
0.945177 -0.045633 0
0.939718 -0.0369105 0
0.892611 -0.05136 0
0.885918 -0.0422447 0
0.88008 -0.034168 0
0.830416 -0.0468734 0
0.823458 -0.0385189 0
0.817349 -0.0311066 0
0.939718 -0.0369105 0
0.934368 -0.0292249 0
0.929673 -0.0224189 0
0.88008 -0.034168 0
0.874511 -0.0270578 0
0.869602 -0.0207718 0
0.817349 -0.0311066 0
0.811634 -0.0245978 0
0.806576 -0.0188615 0
0.830416 -0.0468734 0
0.823458 -0.0385189 0
0.817349 -0.0311066 0
0.76444 -0.0418331 0
0.757346 -0.0343245 0
0.751101 -0.0276578 0
0.695116 -0.036781 0
0.687989 -0.0301063 0
0.681703 -0.0241797 0
0.817349 -0.0311066 0
0.811634 -0.0245978 0
0.806576 -0.0188615 0
0.751101 -0.0276578 0
0.745346 -0.0218164 0
0.74025 -0.0166967 0
0.681703 -0.0241797 0
0.675993 -0.0190117 0
0.670932 -0.0145145 0
0.929673 -0.0224189 0
0.925186 -0.0162771 0
0.92124 -0.0106691 0
0.869602 -0.0207718 0
0.86502 -0.0151078 0
0.861 -0.00993218 0
0.806576 -0.0188615 0
0.801937 -0.0137189 0
0.797868 -0.00903183 0
0.92124 -0.0106691 0
0.917432 -0.00526995 0
0.914062 0 0
0.861 -0.00993218 0
0.857268 -0.00492696 0
0.854004 0 0
0.797868 -0.00903183 0
0.794193 -0.00448875 0
0.791016 0 0
0.806576 -0.0188615 0
0.801937 -0.0137189 0
0.797868 -0.00903183 0
0.74025 -0.0166967 0
0.735647 -0.0121386 0
0.731628 -0.00800556 0
0.670932 -0.0145145 0
0.666417 -0.0105555 0
0.662479 -0.00699329 0
0.797868 -0.00903183 0
0.794193 -0.00448875 0
0.791016 0 0
0.731628 -0.00800556 0
0.728103 -0.00398753 0
0.725098 0 0
0.662479 -0.00699329 0
0.659098 -0.00351325 0
0.65625 0 0
0.787649 -0.114326 0
0.771656 -0.10284 0
0.757187 -0.0916779 0
0.714627 -0.097822 0
0.698666 -0.0880527 0
0.684216 -0.0785196 0
0.637588 -0.0821059 0
0.621698 -0.0739494 0
0.6073 -0.0659556 0
0.757187 -0.0916779 0
0.743952 -0.0809909 0
0.732148 -0.0708266 0
0.684216 -0.0785196 0
0.670966 -0.0693592 0
0.659135 -0.0606218 0
0.6073 -0.0659556 0
0.594098 -0.0582397 0
0.582309 -0.0508572 0
0.637588 -0.0821059 0
0.621698 -0.0739494 0
0.6073 -0.0659556 0
0.556826 -0.0653546 0
0.540923 -0.0588402 0
0.526531 -0.0524378 0
0.471726 -0.0493232 0
0.455943 -0.0443857 0
0.441651 -0.0395276 0
0.6073 -0.0659556 0
0.594098 -0.0582397 0
0.582309 -0.0508572 0
0.526531 -0.0524378 0
0.513336 -0.0462376 0
0.501583 -0.0402931 0
0.441651 -0.0395276 0
0.428556 -0.0348057 0
0.41691 -0.030273 0
0.732148 -0.0708266 0
0.721278 -0.061285 0
0.711673 -0.0523942 0
0.659135 -0.0606218 0
0.648248 -0.0523999 0
0.638616 -0.0447209 0
0.582309 -0.0508572 0
0.571498 -0.043892 0
0.561934 -0.0373725 0
0.711673 -0.0523942 0
0.702865 -0.044228 0
0.695116 -0.036781 0
0.638616 -0.0447209 0
0.629826 -0.0376592 0
0.62209 -0.0312179 0
0.561934 -0.0373725 0
0.553264 -0.0313783 0
0.545646 -0.0259138 0
0.582309 -0.0508572 0
0.571498 -0.043892 0
0.561934 -0.0373725 0
0.501583 -0.0402931 0
0.490862 -0.0346726 0
0.481419 -0.0293993 0
0.41691 -0.030273 0
0.406354 -0.0259757 0
0.397104 -0.0219371 0
0.561934 -0.0373725 0
0.553264 -0.0313783 0
0.545646 -0.0259138 0
0.481419 -0.0293993 0
0.472933 -0.0245484 0
0.46552 -0.0201338 0
0.397104 -0.0219371 0
0.388886 -0.0182235 0
0.381773 -0.0148513 0
0.471726 -0.0493232 0
0.455943 -0.0443857 0
0.441651 -0.0395276 0
0.380402 -0.0324278 0
0.364963 -0.0290391 0
0.351034 -0.025723 0
0.274713 -0.017042 0
0.261132 -0.0152138 0
0.248991 -0.0134407 0
0.441651 -0.0395276 0
0.428556 -0.0348057 0
0.41691 -0.030273 0
0.351034 -0.025723 0
0.338299 -0.0225146 0
0.327031 -0.0194527 0
0.248991 -0.0134407 0
0.237975 -0.011721 0
0.228331 -0.010095 0
0.274713 -0.017042 0
0.261132 -0.0152138 0
0.248991 -0.0134407 0
0.145959 -0.0048609 0
0.13746 -0.00427398 0
0.13007 -0.00372152 0
0 0 0
0 0 0
0 0 0
0.248991 -0.0134407 0
0.237975 -0.011721 0
0.228331 -0.010095 0
0.13007 -0.00372152 0
0.123421 -0.0031817 0
0.117754 -0.00268526 0
0 0 0
0 0 0
0 0 0
0.41691 -0.030273 0
0.406354 -0.0259757 0
0.397104 -0.0219371 0
0.327031 -0.0194527 0
0.316902 -0.016568 0
0.308101 -0.0138679 0
0.228331 -0.010095 0
0.219766 -0.00856872 0
0.212422 -0.00714948 0
0.397104 -0.0219371 0
0.388886 -0.0182235 0
0.381773 -0.0148513 0
0.308101 -0.0138679 0
0.300395 -0.0114002 0
0.293821 -0.00917519 0
0.212422 -0.00714948 0
0.206092 -0.00585704 0
0.20078 -0.00469952 0
0.228331 -0.010095 0
0.219766 -0.00856872 0
0.212422 -0.00714948 0
0.117754 -0.00268526 0
0.112797 -0.00222679 0
0.108645 -0.00181086 0
0 0 0
0 0 0
0 0 0
0.212422 -0.00714948 0
0.206092 -0.00585704 0
0.20078 -0.00469952 0
0.108645 -0.00181086 0
0.105144 -0.00144293 0
0.102248 -0.0011221 0
0 0 0
0 0 0
0 0 0
0.695116 -0.036781 0
0.687989 -0.0301063 0
0.681703 -0.0241797 0
0.62209 -0.0312179 0
0.615037 -0.0254458 0
0.608828 -0.0203253 0
0.545646 -0.0259138 0
0.538766 -0.0210276 0
0.532728 -0.0167022 0
0.681703 -0.0241797 0
0.675993 -0.0190117 0
0.670932 -0.0145145 0
0.608828 -0.0203253 0
0.603261 -0.0158787 0
0.598338 -0.0120463 0
0.532728 -0.0167022 0
0.527393 -0.0129718 0
0.522693 -0.00979254 0
0.545646 -0.0259138 0
0.538766 -0.0210276 0
0.532728 -0.0167022 0
0.46552 -0.0201338 0
0.458907 -0.0162009 0
0.453149 -0.0127329 0
0.381773 -0.0148513 0
0.375539 -0.0118638 0
0.370177 -0.00924247 0
0.532728 -0.0167022 0
0.527393 -0.0129718 0
0.522693 -0.00979254 0
0.453149 -0.0127329 0
0.448147 -0.00976422 0
0.44378 -0.00726924 0
0.370177 -0.00924247 0
0.365619 -0.00702376 0
0.361698 -0.00518945 0
0.670932 -0.0145145 0
0.666417 -0.0105555 0
0.662479 -0.00699329 0
0.598338 -0.0120463 0
0.594002 -0.00872208 0
0.590236 -0.00577433 0
0.522693 -0.00979254 0
0.518603 -0.00708891 0
0.51506 -0.00473793 0
0.662479 -0.00699329 0
0.659098 -0.00351325 0
0.65625 0 0
0.590236 -0.00577433 0
0.587084 -0.00289783 0
0.584473 0 0
0.51506 -0.00473793 0
0.512147 -0.00243251 0
0.509766 0 0
0.522693 -0.00979254 0
0.518603 -0.00708891 0
0.51506 -0.00473793 0
0.44378 -0.00726924 0
0.440034 -0.00519527 0
0.436808 -0.00345039 0
0.361698 -0.00518945 0
0.358396 -0.00370607 0
0.355572 -0.00250411 0
0.51506 -0.00473793 0
0.512147 -0.00243251 0
0.509766 0 0
0.436808 -0.00345039 0
0.434209 -0.00176176 0
0.432129 0 0
0.355572 -0.00250411 0
0.353331 -0.00135071 0
0.351562 0 0
0.381773 -0.0148513 0
0.375539 -0.0118638 0
0.370177 -0.00924247 0
0.293821 -0.00917519 0
0.288194 -0.00722721 0
0.283447 -0.00552971 0
0.20078 -0.00469952 0
0.196348 -0.00369311 0
0.192684 -0.00281887 0
0.370177 -0.00924247 0
0.365619 -0.00702376 0
0.361698 -0.00518945 0
0.283447 -0.00552971 0
0.27953 -0.00411095 0
0.276237 -0.00296445 0
0.192684 -0.00281887 0
0.189753 -0.00209322 0
0.187345 -0.00151741 0
0.20078 -0.00469952 0
0.196348 -0.00369311 0
0.192684 -0.00281887 0
0.102248 -0.0011221 0
0.0999129 -0.000855612 0
0.0979786 -0.000629628 0
0 0 0
0 0 0
0 0 0
0.192684 -0.00281887 0
0.189753 -0.00209322 0
0.187345 -0.00151741 0
0.0979786 -0.000629628 0
0.0964974 -0.000448715 0
0.0952437 -0.000315526 0
0 0 0
0 0 0
0 0 0
0.361698 -0.00518945 0
0.358396 -0.00370607 0
0.355572 -0.00250411 0
0.276237 -0.00296445 0
0.27354 -0.00206237 0
0.271259 -0.00136694 0
0.187345 -0.00151741 0
0.185444 -0.00107293 0
0.183851 -0.000739422 0
0.355572 -0.00250411 0
0.353331 -0.00135071 0
0.351562 0 0
0.271259 -0.00136694 0
0.269466 -0.0007223 0
0.268066 0 0
0.183851 -0.000739422 0
0.182615 -0.000449539 0
0.181641 0 0
0.187345 -0.00151741 0
0.185444 -0.00107293 0
0.183851 -0.000739422 0
0.0952437 -0.000315526 0
0.0942993 -0.000218438 0
0.0934578 -0.000151921 0
0 0 0
0 0 0
0 0 0
0.183851 -0.000739422 0
0.182615 -0.000449539 0
0.181641 0 0
0.0934578 -0.000151921 0
0.0928039 -8.07501e-05 0
0.0922852 0 0
0 0 0
0 0 0
0 0 0
1.62187 -0.470746 0
1.58062 -0.481723 0
1.53941 -0.487854 0
1.56476 -0.418798 0
1.52686 -0.430074 0
1.48726 -0.436601 0
1.49932 -0.372644 0
1.46532 -0.38425 0
1.43066 -0.39174 0
1.53941 -0.487854 0
1.49815 -0.487972 0
1.45796 -0.483668 0
1.48726 -0.436601 0
1.4495 -0.438543 0
1.41095 -0.435882 0
1.43066 -0.39174 0
1.39689 -0.395102 0
1.36312 -0.394434 0
1.49932 -0.372644 0
1.46532 -0.38425 0
1.43066 -0.39174 0
1.44298 -0.333413 0
1.41258 -0.343391 0
1.38117 -0.349933 0
1.37895 -0.294189 0
1.34996 -0.303461 0
1.32007 -0.309753 0
1.43066 -0.39174 0
1.39689 -0.395102 0
1.36312 -0.394434 0
1.38117 -0.349933 0
1.35029 -0.352956 0
1.31902 -0.352594 0
1.32007 -0.309753 0
1.2907 -0.313089 0
1.26102 -0.313494 0
1.45796 -0.483668 0
1.42001 -0.474092 0
1.38397 -0.460415 0
1.41095 -0.435882 0
1.37629 -0.429095 0
1.34183 -0.418737 0
1.36312 -0.394434 0
1.33203 -0.390116 0
1.30146 -0.382316 0
1.38397 -0.460415 0
1.35111 -0.443369 0
1.32067 -0.423564 0
1.34183 -0.418737 0
1.31186 -0.405372 0
1.28281 -0.389171 0
1.30146 -0.382316 0
1.27415 -0.371537 0
1.24773 -0.357993 0
1.36312 -0.394434 0
1.33203 -0.390116 0
1.30146 -0.382316 0
1.31902 -0.352594 0
1.28961 -0.34905 0
1.26041 -0.342548 0
1.26102 -0.313494 0
1.23306 -0.311217 0
1.20544 -0.306383 0
1.30146 -0.382316 0
1.27415 -0.371537 0
1.24773 -0.357993 0
1.26041 -0.342548 0
1.23375 -0.333552 0
1.20788 -0.322224 0
1.20544 -0.306383 0
1.18017 -0.299355 0
1.15574 -0.290211 0
1.37895 -0.294189 0
1.34996 -0.303461 0
1.32007 -0.309753 0
1.3068 -0.260497 0
1.27999 -0.269229 0
1.25239 -0.275329 0
1.23789 -0.228304 0
1.21271 -0.236603 0
1.18675 -0.242582 0
1.32007 -0.309753 0
1.2907 -0.313089 0
1.26102 -0.313494 0
1.25239 -0.275329 0
1.22536 -0.278785 0
1.19808 -0.279644 0
1.18675 -0.242582 0
1.16122 -0.246183 0
1.13538 -0.247472 0
1.23789 -0.228304 0
1.21271 -0.236603 0
1.18675 -0.242582 0
1.1689 -0.197207 0
1.14466 -0.204759 0
1.11961 -0.210278 0
1.09515 -0.16737 0
1.07175 -0.174365 0
1.04755 -0.17964 0
1.18675 -0.242582 0
1.16122 -0.246183 0
1.13538 -0.247472 0
1.11961 -0.210278 0
1.09489 -0.213769 0
1.06985 -0.215266 0
1.04755 -0.17964 0
1.02365 -0.18319 0
0.999448 -0.185022 0
1.26102 -0.313494 0
1.23306 -0.311217 0
1.20544 -0.306383 0
1.19808 -0.279644 0
1.17229 -0.27808 0
1.14673 -0.274209 0
1.13538 -0.247472 0
1.1107 -0.246584 0
1.08619 -0.243631 0
1.20544 -0.306383 0
1.18017 -0.299355 0
1.15574 -0.290211 0
1.14673 -0.274209 0
1.12311 -0.268331 0
1.10015 -0.260527 0
1.08619 -0.243631 0
1.0633 -0.238872 0
1.04103 -0.232387 0
1.13538 -0.247472 0
1.1107 -0.246584 0
1.08619 -0.243631 0
1.06985 -0.215266 0
1.04583 -0.214915 0
1.02199 -0.212752 0
0.999448 -0.185022 0
0.976142 -0.185242 0
0.952993 -0.183874 0
1.08619 -0.243631 0
1.0633 -0.238872 0
1.04103 -0.232387 0
1.02199 -0.212752 0
0.999604 -0.209025 0
0.977837 -0.203754 0
0.952993 -0.183874 0
0.931112 -0.18111 0
0.909804 -0.176963 0
1.32067 -0.423564 0
1.29438 -0.401829 0
1.27095 -0.378094 0
1.28281 -0.389171 0
1.25883 -0.370899 0
1.23634 -0.351059 0
1.24773 -0.357993 0
1.22503 -0.342487 0
1.20353 -0.325175 0
1.27095 -0.378094 0
1.25107 -0.353933 0
1.2341 -0.329105 0
1.23634 -0.351059 0
1.21797 -0.330302 0
1.20137 -0.30851 0
1.20353 -0.325175 0
1.18532 -0.306722 0
1.16856 -0.287238 0
1.24773 -0.357993 0
1.22503 -0.342487 0
1.20353 -0.325175 0
1.20788 -0.322224 0
1.18511 -0.309149 0
1.16359 -0.294431 0
1.15574 -0.290211 0
1.13411 -0.279416 0
1.11371 -0.267085 0
1.20353 -0.325175 0
1.18532 -0.306722 0
1.16856 -0.287238 0
1.16359 -0.294431 0
1.14505 -0.278706 0
1.1281 -0.262046 0
1.11371 -0.267085 0
1.09589 -0.253689 0
1.07951 -0.239283 0
1.2341 -0.329105 0
1.22056 -0.304531 0
1.20996 -0.279792 0
1.20137 -0.30851 0
1.18843 -0.286419 0
1.17741 -0.264217 0
1.16856 -0.287238 0
1.15487 -0.267486 0
1.14286 -0.247491 0
1.20996 -0.279792 0
1.20164 -0.255904 0
1.19573 -0.232753 0
1.17741 -0.264217 0
1.16884 -0.242418 0
1.1622 -0.22084 0
1.14286 -0.247491 0
1.13327 -0.227805 0
1.1254 -0.208456 0
1.16856 -0.287238 0
1.15487 -0.267486 0
1.14286 -0.247491 0
1.1281 -0.262046 0
1.11396 -0.244989 0
1.10156 -0.22753 0
1.07951 -0.239283 0
1.06554 -0.224319 0
1.05313 -0.208878 0
1.14286 -0.247491 0
1.13327 -0.227805 0
1.1254 -0.208456 0
1.10156 -0.22753 0
1.09134 -0.210121 0
1.08282 -0.19279 0
1.05313 -0.208878 0
1.0426 -0.19336 0
1.03366 -0.177826 0
1.15574 -0.290211 0
1.13411 -0.279416 0
1.11371 -0.267085 0
1.10015 -0.260527 0
1.07946 -0.251224 0
1.05981 -0.24051 0
1.04103 -0.232387 0
1.02072 -0.224537 0
1.00142 -0.215402 0
1.11371 -0.267085 0
1.09589 -0.253689 0
1.07951 -0.239283 0
1.05981 -0.24051 0
1.04231 -0.228826 0
1.02611 -0.216187 0
1.00142 -0.215402 0
0.984087 -0.20535 0
0.968026 -0.194409 0
1.04103 -0.232387 0
1.02072 -0.224537 0
1.00142 -0.215402 0
0.977837 -0.203754 0
0.957817 -0.19726 0
0.93877 -0.189574 0
0.909804 -0.176963 0
0.890012 -0.171696 0
0.87114 -0.165341 0
1.00142 -0.215402 0
0.984087 -0.20535 0
0.968026 -0.194409 0
0.93877 -0.189574 0
0.921477 -0.18103 0
0.905398 -0.171644 0
0.87114 -0.165341 0
0.853838 -0.158179 0
0.837715 -0.15023 0
1.07951 -0.239283 0
1.06554 -0.224319 0
1.05313 -0.208878 0
1.02611 -0.216187 0
1.01203 -0.203052 0
0.99942 -0.189467 0
0.968026 -0.194409 0
0.953873 -0.182952 0
0.941128 -0.171019 0
1.05313 -0.208878 0
1.0426 -0.19336 0
1.03366 -0.177826 0
0.99942 -0.189467 0
0.988544 -0.175785 0
0.979178 -0.161976 0
0.941128 -0.171019 0
0.92998 -0.158898 0
0.920272 -0.146616 0
0.968026 -0.194409 0
0.953873 -0.182952 0
0.941128 -0.171019 0
0.905398 -0.171644 0
0.891017 -0.161745 0
0.877995 -0.151365 0
0.837715 -0.15023 0
0.823147 -0.141775 0
0.809918 -0.13285 0
0.941128 -0.171019 0
0.92998 -0.158898 0
0.920272 -0.146616 0
0.877995 -0.151365 0
0.866448 -0.140783 0
0.856302 -0.130026 0
0.809918 -0.13285 0
0.798089 -0.123692 0
0.787649 -0.114326 0
1.09515 -0.16737 0
1.07175 -0.174365 0
1.04755 -0.17964 0
1.02068 -0.140582 0
0.997989 -0.146773 0
0.974508 -0.151505 0
0.945856 -0.113904 0
0.923481 -0.119469 0
0.900283 -0.123803 0
1.04755 -0.17964 0
1.02365 -0.18319 0
0.999448 -0.185022 0
0.974508 -0.151505 0
0.951238 -0.154756 0
0.927623 -0.156535 0
0.900283 -0.123803 0
0.877245 -0.126887 0
0.853834 -0.128728 0
0.945856 -0.113904 0
0.923481 -0.119469 0
0.900283 -0.123803 0
0.868442 -0.0883552 0
0.846469 -0.093164 0
0.823629 -0.0969526 0
0.784581 -0.0636874 0
0.76326 -0.0677251 0
0.740952 -0.0709685 0
0.900283 -0.123803 0
0.877245 -0.126887 0
0.853834 -0.128728 0
0.823629 -0.0969526 0
0.800856 -0.0997136 0
0.777661 -0.101452 0
0.740952 -0.0709685 0
0.718619 -0.0734098 0
0.695772 -0.0750444 0
0.999448 -0.185022 0
0.976142 -0.185242 0
0.952993 -0.183874 0
0.927623 -0.156535 0
0.904735 -0.156929 0
0.881952 -0.155962 0
0.853834 -0.128728 0
0.831043 -0.129405 0
0.808333 -0.128929 0
0.952993 -0.183874 0
0.931112 -0.18111 0
0.909804 -0.176963 0
0.881952 -0.155962 0
0.860253 -0.153802 0
0.839081 -0.150454 0
0.808333 -0.128929 0
0.786585 -0.12744 0
0.765342 -0.124941 0
0.853834 -0.128728 0
0.831043 -0.129405 0
0.808333 -0.128929 0
0.777661 -0.101452 0
0.754965 -0.102234 0
0.732295 -0.102058 0
0.695772 -0.0750444 0
0.673306 -0.0759258 0
0.650787 -0.0760469 0
0.808333 -0.128929 0
0.786585 -0.12744 0
0.765342 -0.124941 0
0.732295 -0.102058 0
0.710445 -0.101046 0
0.689043 -0.0991944 0
0.650787 -0.0760469 0
0.628957 -0.0755067 0
0.607508 -0.0742969 0
0.784581 -0.0636874 0
0.76326 -0.0677251 0
0.740952 -0.0709685 0
0.686246 -0.0410593 0
0.666608 -0.0440995 0
0.645771 -0.0465662 0
0.54476 -0.0198764 0
0.528786 -0.0217664 0
0.511385 -0.0233326 0
0.740952 -0.0709685 0
0.718619 -0.0734098 0
0.695772 -0.0750444 0
0.645771 -0.0465662 0
0.624657 -0.0484543 0
0.602848 -0.0497541 0
0.511385 -0.0233326 0
0.493455 -0.0245782 0
0.474636 -0.0254783 0
0.54476 -0.0198764 0
0.528786 -0.0217664 0
0.511385 -0.0233326 0
0.323594 -0.00611531 0
0.313849 -0.00673681 0
0.30288 -0.00723094 0
0 0 0
0 0 0
0 0 0
0.511385 -0.0233326 0
0.493455 -0.0245782 0
0.474636 -0.0254783 0
0.30288 -0.00723094 0
0.291375 -0.00763731 0
0.279093 -0.0079045 0
0 0 0
0 0 0
0 0 0
0.695772 -0.0750444 0
0.673306 -0.0759258 0
0.650787 -0.0760469 0