# vtk DataFile Version 3.0
#This file was generated by the deal.II library on 2025/1/7 at 22:53:13
ASCII
DATASET UNSTRUCTURED_GRID

POINTS 34560 double
1.1 1.1 0
1.03125 1.09531 0
0.9625 1.09063 0
1.09375 1.03125 0
1.02539 1.02686 0
0.957031 1.02246 0
1.0875 0.9625 0
1.01953 0.958398 0
0.951563 0.954297 0
0.9625 1.09063 0
0.89375 1.08594 0
0.825 1.08125 0
0.957031 1.02246 0
0.888672 1.01807 0
0.820312 1.01367 0
0.951563 0.954297 0
0.883594 0.950195 0
0.815625 0.946094 0
1.0875 0.9625 0
1.01953 0.958398 0
0.951563 0.954297 0
1.08125 0.89375 0
1.01367 0.889941 0
0.946094 0.886133 0
1.075 0.825 0
1.00781 0.821484 0
0.940625 0.817969 0
0.951563 0.954297 0
0.883594 0.950195 0
0.815625 0.946094 0
0.946094 0.886133 0
0.878516 0.882324 0
0.810938 0.878516 0
0.940625 0.817969 0
0.873438 0.814453 0
0.80625 0.810937 0
0.825 1.08125 0
0.75625 1.07656 0
0.6875 1.07187 0
0.820312 1.01367 0
0.751953 1.00928 0
0.683594 1.00488 0
0.815625 0.946094 0
0.747656 0.941992 0
0.679688 0.937891 0
0.6875 1.07187 0
0.61875 1.06719 0
0.55 1.0625 0
0.683594 1.00488 0
0.615234 1.00049 0
0.546875 0.996094 0
0.679688 0.937891 0
0.611719 0.933789 0
0.54375 0.929688 0
0.815625 0.946094 0
0.747656 0.941992 0
0.679688 0.937891 0
0.810938 0.878516 0
0.743359 0.874707 0
0.675781 0.870898 0
0.80625 0.810937 0
0.739063 0.807422 0
0.671875 0.803906 0
0.679688 0.937891 0
0.611719 0.933789 0
0.54375 0.929688 0
0.675781 0.870898 0
0.608203 0.86709 0
0.540625 0.863281 0
0.671875 0.803906 0
0.604688 0.800391 0
0.5375 0.796875 0
1.075 0.825 0
1.00781 0.821484 0
0.940625 0.817969 0
1.06875 0.75625 0
1.00195 0.753027 0
0.935156 0.749805 0
1.0625 0.6875 0
0.996094 0.68457 0
0.929688 0.681641 0
0.940625 0.817969 0
0.873438 0.814453 0
0.80625 0.810937 0
0.935156 0.749805 0
0.868359 0.746582 0
0.801563 0.743359 0
0.929688 0.681641 0
0.863281 0.678711 0
0.796875 0.675781 0
1.0625 0.6875 0
0.996094 0.68457 0
0.929688 0.681641 0
1.05625 0.61875 0
0.990234 0.616113 0
0.924219 0.613477 0
1.05 0.55 0
0.984375 0.547656 0
0.91875 0.545313 0
0.929688 0.681641 0
0.863281 0.678711 0
0.796875 0.675781 0
0.924219 0.613477 0
0.858203 0.61084 0
0.792188 0.608203 0
0.91875 0.545313 0
0.853125 0.542969 0
0.7875 0.540625 0
0.80625 0.810937 0
0.739063 0.807422 0
0.671875 0.803906 0
0.801563 0.743359 0
0.734766 0.740137 0
0.667969 0.736914 0
0.796875 0.675781 0
0.730469 0.672852 0
0.664062 0.669922 0
0.671875 0.803906 0
0.604688 0.800391 0
0.5375 0.796875 0
0.667969 0.736914 0
0.601172 0.733691 0
0.534375 0.730469 0
0.664062 0.669922 0
0.597656 0.666992 0
0.53125 0.664062 0
0.796875 0.675781 0
0.730469 0.672852 0
0.664062 0.669922 0
0.792188 0.608203 0
0.726172 0.605566 0
0.660156 0.60293 0
0.7875 0.540625 0
0.721875 0.538281 0
0.65625 0.535937 0
0.664062 0.669922 0
0.597656 0.666992 0
0.53125 0.664062 0
0.660156 0.60293 0
0.594141 0.600293 0
0.528125 0.597656 0
0.65625 0.535937 0
0.590625 0.533594 0
0.525 0.53125 0
0.55 1.0625 0
0.48125 1.05781 0
0.4125 1.05313 0
0.546875 0.996094 0
0.478516 0.991699 0
0.410156 0.987305 0
0.54375 0.929688 0
0.475781 0.925586 0
0.407813 0.921484 0
0.4125 1.05313 0
0.34375 1.04844 0
0.275 1.04375 0
0.410156 0.987305 0
0.341797 0.98291 0
0.273438 0.978516 0
0.407813 0.921484 0
0.339844 0.917383 0
0.271875 0.913281 0
0.54375 0.929688 0
0.475781 0.925586 0
0.407813 0.921484 0
0.540625 0.863281 0
0.473047 0.859473 0
0.405469 0.855664 0
0.5375 0.796875 0
0.470313 0.793359 0
0.403125 0.789844 0
0.407813 0.921484 0
0.339844 0.917383 0
0.271875 0.913281 0
0.405469 0.855664 0
0.337891 0.851855 0
0.270313 0.848047 0
0.403125 0.789844 0
0.335938 0.786328 0
0.26875 0.782813 0
0.275 1.04375 0
0.20625 1.03906 0
0.1375 1.03437 0
0.273438 0.978516 0
0.205078 0.974121 0
0.136719 0.969727 0
0.271875 0.913281 0
0.203906 0.90918 0
0.135938 0.905078 0
0.1375 1.03437 0
0.06875 1.02969 0
0 1.025 0
0.136719 0.969727 0
0.0683594 0.965332 0
0 0.960937 0
0.135938 0.905078 0
0.0679688 0.900977 0
0 0.896875 0
0.271875 0.913281 0
0.203906 0.90918 0
0.135938 0.905078 0
0.270313 0.848047 0
0.202734 0.844238 0
0.135156 0.84043 0
0.26875 0.782813 0
0.201563 0.779297 0
0.134375 0.775781 0
0.135938 0.905078 0
0.0679688 0.900977 0
0 0.896875 0
0.135156 0.84043 0
0.0675781 0.836621 0
0 0.832812 0
0.134375 0.775781 0
0.0671875 0.772266 0
0 0.76875 0
0.5375 0.796875 0
0.470313 0.793359 0
0.403125 0.789844 0
0.534375 0.730469 0
0.467578 0.727246 0
0.400781 0.724023 0
0.53125 0.664062 0
0.464844 0.661133 0
0.398438 0.658203 0
0.403125 0.789844 0
0.335938 0.786328 0
0.26875 0.782813 0
0.400781 0.724023 0
0.333984 0.720801 0
0.267188 0.717578 0
0.398438 0.658203 0
0.332031 0.655273 0
0.265625 0.652344 0
0.53125 0.664062 0
0.464844 0.661133 0
0.398438 0.658203 0
0.528125 0.597656 0
0.462109 0.59502 0
0.396094 0.592383 0
0.525 0.53125 0
0.459375 0.528906 0
0.39375 0.526563 0
0.398438 0.658203 0
0.332031 0.655273 0
0.265625 0.652344 0
0.396094 0.592383 0
0.330078 0.589746 0
0.264062 0.587109 0
0.39375 0.526563 0
0.328125 0.524219 0
0.2625 0.521875 0
0.26875 0.782813 0
0.201563 0.779297 0
0.134375 0.775781 0
0.267188 0.717578 0
0.200391 0.714355 0
0.133594 0.711133 0
0.265625 0.652344 0
0.199219 0.649414 0
0.132812 0.646484 0
0.134375 0.775781 0
0.0671875 0.772266 0
0 0.76875 0
0.133594 0.711133 0
0.0667969 0.70791 0
0 0.704687 0
0.132812 0.646484 0
0.0664062 0.643555 0
0 0.640625 0
0.265625 0.652344 0
0.199219 0.649414 0
0.132812 0.646484 0
0.264062 0.587109 0
0.198047 0.584473 0
0.132031 0.581836 0
0.2625 0.521875 0
0.196875 0.519531 0
0.13125 0.517187 0
0.132812 0.646484 0
0.0664062 0.643555 0
0 0.640625 0
0.132031 0.581836 0
0.0660156 0.579199 0
0 0.576562 0
0.13125 0.517187 0
0.065625 0.514844 0
0 0.5125 0
1.05 0.55 0
0.984375 0.547656 0
0.91875 0.545313 0
1.04375 0.48125 0
0.978516 0.479199 0
0.913281 0.477148 0
1.0375 0.4125 0
0.972656 0.410742 0
0.907813 0.408984 0
0.91875 0.545313 0
0.853125 0.542969 0
0.7875 0.540625 0
0.913281 0.477148 0
0.848047 0.475098 0
0.782813 0.473047 0
0.907813 0.408984 0
0.842969 0.407227 0
0.778125 0.405469 0
1.0375 0.4125 0
0.972656 0.410742 0
0.907813 0.408984 0
1.03125 0.34375 0
0.966797 0.342285 0
0.902344 0.34082 0
1.025 0.275 0
0.960937 0.273828 0
0.896875 0.272656 0
0.907813 0.408984 0
0.842969 0.407227 0
0.778125 0.405469 0
0.902344 0.34082 0
0.837891 0.339355 0
0.773438 0.337891 0
0.896875 0.272656 0
0.832812 0.271484 0
0.76875 0.270313 0
0.7875 0.540625 0
0.721875 0.538281 0
0.65625 0.535937 0
0.782813 0.473047 0
0.717578 0.470996 0
0.652344 0.468945 0
0.778125 0.405469 0
0.713281 0.403711 0
0.648438 0.401953 0
0.65625 0.535937 0
0.590625 0.533594 0
0.525 0.53125 0
0.652344 0.468945 0
0.587109 0.466895 0
0.521875 0.464844 0
0.648438 0.401953 0
0.583594 0.400195 0
0.51875 0.398438 0
0.778125 0.405469 0
0.713281 0.403711 0
0.648438 0.401953 0
0.773438 0.337891 0
0.708984 0.336426 0
0.644531 0.334961 0
0.76875 0.270313 0
0.704687 0.269141 0
0.640625 0.267969 0
0.648438 0.401953 0
0.583594 0.400195 0
0.51875 0.398438 0
0.644531 0.334961 0
0.580078 0.333496 0
0.515625 0.332031 0
0.640625 0.267969 0
0.576562 0.266797 0
0.5125 0.265625 0
1.025 0.275 0
0.960937 0.273828 0
0.896875 0.272656 0
1.01875 0.20625 0
0.955078 0.205371 0
0.891406 0.204492 0
1.0125 0.1375 0
0.949219 0.136914 0
0.885937 0.136328 0
0.896875 0.272656 0
0.832812 0.271484 0
0.76875 0.270313 0
0.891406 0.204492 0
0.827734 0.203613 0
0.764062 0.202734 0
0.885937 0.136328 0
0.822656 0.135742 0
0.759375 0.135156 0
1.0125 0.1375 0
0.949219 0.136914 0
0.885937 0.136328 0
1.00625 0.06875 0
0.943359 0.068457 0
0.880469 0.0681641 0
1 0 0
0.9375 0 0
0.875 0 0
0.885937 0.136328 0
0.822656 0.135742 0
0.759375 0.135156 0
0.880469 0.0681641 0
0.817578 0.0678711 0
0.754687 0.0675781 0
0.875 0 0
0.8125 0 0
0.75 0 0
0.76875 0.270313 0
0.704687 0.269141 0
0.640625 0.267969 0
0.764062 0.202734 0
0.700391 0.201855 0
0.636719 0.200977 0
0.759375 0.135156 0
0.696094 0.13457 0
0.632812 0.133984 0
0.640625 0.267969 0
0.576562 0.266797 0
0.5125 0.265625 0
0.636719 0.200977 0
0.573047 0.200098 0
0.509375 0.199219 0
0.632812 0.133984 0
0.569531 0.133398 0
0.50625 0.132812 0
0.759375 0.135156 0
0.696094 0.13457 0
0.632812 0.133984 0
0.754687 0.0675781 0
0.691797 0.0672852 0
0.628906 0.0669922 0
0.75 0 0
0.6875 0 0
0.625 0 0
0.632812 0.133984 0
0.569531 0.133398 0
0.50625 0.132812 0
0.628906 0.0669922 0
0.566016 0.0666992 0
0.503125 0.0664062 0
0.625 0 0
0.5625 0 0
0.5 0 0
0.525 0.53125 0
0.459375 0.528906 0
0.39375 0.526563 0
0.521875 0.464844 0
0.456641 0.462793 0
0.391406 0.460742 0
0.51875 0.398438 0
0.453906 0.39668 0
0.389063 0.394922 0
0.39375 0.526563 0
0.328125 0.524219 0
0.2625 0.521875 0
0.391406 0.460742 0
0.326172 0.458691 0
0.260938 0.456641 0
0.389063 0.394922 0
0.324219 0.393164 0
0.259375 0.391406 0
0.51875 0.398438 0
0.453906 0.39668 0
0.389063 0.394922 0
0.515625 0.332031 0
0.451172 0.330566 0
0.386719 0.329102 0
0.5125 0.265625 0
0.448437 0.264453 0
0.384375 0.263281 0
0.389063 0.394922 0
0.324219 0.393164 0
0.259375 0.391406 0
0.386719 0.329102 0
0.322266 0.327637 0
0.257812 0.326172 0
0.384375 0.263281 0
0.320312 0.262109 0
0.25625 0.260937 0
0.2625 0.521875 0
0.196875 0.519531 0
0.13125 0.517187 0
0.260938 0.456641 0
0.195703 0.45459 0
0.130469 0.452539 0
0.259375 0.391406 0
0.194531 0.389648 0
0.129688 0.387891 0
0.13125 0.517187 0
0.065625 0.514844 0
0 0.5125 0
0.130469 0.452539 0
0.0652344 0.450488 0
0 0.448437 0
0.129688 0.387891 0
0.0648438 0.386133 0
0 0.384375 0
0.259375 0.391406 0
0.194531 0.389648 0
0.129688 0.387891 0
0.257812 0.326172 0
0.193359 0.324707 0
0.128906 0.323242 0
0.25625 0.260937 0
0.192187 0.259766 0
0.128125 0.258594 0
0.129688 0.387891 0
0.0648438 0.386133 0
0 0.384375 0
0.128906 0.323242 0
0.0644531 0.321777 0
0 0.320312 0
0.128125 0.258594 0
0.0640625 0.257422 0
0 0.25625 0
0.5125 0.265625 0
0.448437 0.264453 0
0.384375 0.263281 0
0.509375 0.199219 0
0.445703 0.19834 0
0.382031 0.197461 0
0.50625 0.132812 0
0.442969 0.132227 0
0.379688 0.131641 0
0.384375 0.263281 0
0.320312 0.262109 0
0.25625 0.260937 0
0.382031 0.197461 0
0.318359 0.196582 0
0.254687 0.195703 0
[...]
POINT_DATA 34560
VECTORS v double
1.21718 -0.228327 0
1.20624 -0.206499 0
1.19611 -0.187306 0
1.18357 -0.215376 0
1.17081 -0.19661 0
1.15947 -0.179082 0
1.14726 -0.202418 0
1.13326 -0.185479 0
1.12025 -0.169577 0
1.19611 -0.187306 0
1.18792 -0.169021 0
1.18048 -0.152755 0
1.15947 -0.179082 0
1.14945 -0.162628 0
1.14083 -0.147458 0
1.12025 -0.169577 0
1.10883 -0.154552 0
1.0985 -0.140496 0
1.14726 -0.202418 0
1.13326 -0.185479 0
1.12025 -0.169577 0
1.10484 -0.18557 0
1.08941 -0.17099 0
1.0751 -0.15717 0
1.05562 -0.170041 0
1.0396 -0.157391 0
1.02457 -0.145249 0
1.12025 -0.169577 0
1.10883 -0.154552 0
1.0985 -0.140496 0
1.0751 -0.15717 0
1.06236 -0.143967 0
1.05081 -0.131493 0
1.02457 -0.145249 0
1.01113 -0.133536 0
0.99878 -0.122353 0
1.18048 -0.152755 0
1.17409 -0.137285 0
1.16838 -0.123223 0
1.14083 -0.147458 0
1.1328 -0.133092 0
1.1261 -0.119777 0
1.0985 -0.140496 0
1.08917 -0.127172 0
1.08098 -0.114642 0
1.16838 -0.123223 0
1.16292 -0.10976 0
1.158 -0.09723 0
1.1261 -0.119777 0
1.11921 -0.106958 0
1.11347 -0.0949152 0
1.08098 -0.114642 0
1.07296 -0.102607 0
1.06602 -0.0911331 0
1.0985 -0.140496 0
1.08917 -0.127172 0
1.08098 -0.114642 0
1.05081 -0.131493 0
1.04035 -0.119486 0
1.03108 -0.108149 0
0.99878 -0.122353 0
0.987569 -0.111526 0
0.9775 -0.101197 0
1.08098 -0.114642 0
1.07296 -0.102607 0
1.06602 -0.0911331 0
1.03108 -0.108149 0
1.02217 -0.097113 0
1.01437 -0.0865024 0
0.9775 -0.101197 0
0.967935 -0.0910736 0
0.959467 -0.0812747 0
1.05562 -0.170041 0
1.0396 -0.157391 0
1.02457 -0.145249 0
1.00146 -0.153448 0
0.985029 -0.142606 0
0.969508 -0.132103 0
0.942759 -0.13765 0
0.926131 -0.128304 0
0.910287 -0.119196 0
1.02457 -0.145249 0
1.01113 -0.133536 0
0.99878 -0.122353 0
0.969508 -0.132103 0
0.955483 -0.121878 0
0.942488 -0.112062 0
0.910287 -0.119196 0
0.895873 -0.11029 0
0.882402 -0.101689 0
0.942759 -0.13765 0
0.926131 -0.128304 0
0.910287 -0.119196 0
0.87913 -0.120641 0
0.862437 -0.112775 0
0.846482 -0.105085 0
0.81067 -0.10478 0
0.794221 -0.0981452 0
0.778408 -0.0916432 0
0.910287 -0.119196 0
0.895873 -0.11029 0
0.882402 -0.101689 0
0.846482 -0.105085 0
0.831839 -0.0975321 0
0.81809 -0.0902139 0
0.778408 -0.0916432 0
0.76379 -0.0852482 0
0.749975 -0.079045 0
0.99878 -0.122353 0
0.987569 -0.111526 0
0.9775 -0.101197 0
0.942488 -0.112062 0
0.930657 -0.102476 0
0.919921 -0.0932718 0
0.882402 -0.101689 0
0.87011 -0.0932444 0
0.858864 -0.0850922 0
0.9775 -0.101197 0
0.967935 -0.0910736 0
0.959467 -0.0812747 0
0.919921 -0.0932718 0
0.909825 -0.0841831 0
0.900801 -0.0753299 0
0.858864 -0.0850922 0
0.848357 -0.0769943 0
0.838902 -0.0690574 0
0.882402 -0.101689 0
0.87011 -0.0932444 0
0.858864 -0.0850922 0
0.81809 -0.0902139 0
0.805489 -0.0829875 0
0.793899 -0.0759816 0
0.749975 -0.079045 0
0.73725 -0.0729086 0
0.725471 -0.0669493 0
0.858864 -0.0850922 0
0.848357 -0.0769943 0
0.838902 -0.0690574 0
0.793899 -0.0759816 0
0.783103 -0.0689691 0
0.773347 -0.0620553 0
0.725471 -0.0669493 0
0.714515 -0.0609582 0
0.70457 -0.0550224 0
1.158 -0.09723 0
1.15323 -0.0850054 0
1.14895 -0.0732493 0
1.11347 -0.0949152 0
1.10758 -0.083104 0
1.10273 -0.0717056 0
1.06602 -0.0911331 0
1.05927 -0.0798917 0
1.05355 -0.0689552 0
1.14895 -0.0732493 0
1.14443 -0.0615328 0
1.1403 -0.0499478 0
1.10273 -0.0717056 0
1.09734 -0.0602662 0
1.09284 -0.0489653 0
1.05355 -0.0689552 0
1.04753 -0.0580024 0
1.04244 -0.0470941 0
1.06602 -0.0911331 0
1.05927 -0.0798917 0
1.05355 -0.0689552 0
1.01437 -0.0865024 0
1.00695 -0.0759943 0
1.00059 -0.0657503 0
0.959467 -0.0812747 0
0.951497 -0.0715307 0
0.944599 -0.0619672 0
1.05355 -0.0689552 0
1.04753 -0.0580024 0
1.04244 -0.0470941 0
1.00059 -0.0657503 0
0.994141 -0.0554218 0
0.988643 -0.0450602 0
0.944599 -0.0619672 0
0.93778 -0.0522767 0
0.931949 -0.0425281 0
1.1403 -0.0499478 0
1.13619 -0.0380907 0
1.13248 -0.0259612 0
1.09284 -0.0489653 0
1.08819 -0.0373738 0
1.08438 -0.0255215 0
1.04244 -0.0470941 0
1.03743 -0.0359134 0
1.03334 -0.0244862 0
1.13248 -0.0259612 0
1.12853 -0.0132511 0
1.125 0 0
1.08438 -0.0255215 0
1.08014 -0.0130434 0
1.07666 0 0
1.03334 -0.0244862 0
1.02892 -0.0125067 0
1.02539 0 0
1.04244 -0.0470941 0
1.03743 -0.0359134 0
1.03334 -0.0244862 0
0.988643 -0.0450602 0
0.983405 -0.034395 0
0.979117 -0.0235073 0
0.931949 -0.0425281 0
0.926485 -0.0324841 0
0.922014 -0.0222001 0
1.03334 -0.0244862 0
1.02892 -0.0125067 0
1.02539 0 0
0.979117 -0.0235073 0
0.974706 -0.0120598 0
0.971191 0 0
0.922014 -0.0222001 0
0.917557 -0.0113754 0
0.914062 0 0
0.959467 -0.0812747 0
0.951497 -0.0715307 0
0.944599 -0.0619672 0
0.900801 -0.0753299 0
0.892407 -0.0664587 0
0.885077 -0.057695 0
0.838902 -0.0690574 0
0.830173 -0.0610571 0
0.822511 -0.0531106 0
0.944599 -0.0619672 0
0.93778 -0.0522767 0
0.931949 -0.0425281 0
0.885077 -0.057695 0
0.877997 -0.0487685 0
0.871923 -0.0397466 0
0.822511 -0.0531106 0
0.815232 -0.044976 0
0.808973 -0.0367117 0
0.838902 -0.0690574 0
0.830173 -0.0610571 0
0.822511 -0.0531106 0
0.773347 -0.0620553 0
0.764392 -0.0550266 0
0.756508 -0.047998 0
0.70457 -0.0550224 0
0.695475 -0.0489435 0
0.687446 -0.0428253 0
0.822511 -0.0531106 0
0.815232 -0.044976 0
0.808973 -0.0367117 0
0.756508 -0.047998 0
0.74911 -0.0407451 0
0.742753 -0.0333308 0
0.687446 -0.0428253 0
0.679992 -0.0364653 0
0.673592 -0.0299176 0
0.931949 -0.0425281 0
0.926485 -0.0324841 0
0.922014 -0.0222001 0
0.871923 -0.0397466 0
0.86634 -0.0304088 0
0.861781 -0.020813 0
0.808973 -0.0367117 0
0.803299 -0.0281281 0
0.798675 -0.0192799 0
0.922014 -0.0222001 0
0.917557 -0.0113754 0
0.914062 0 0
0.861781 -0.020813 0
0.857391 -0.0106855 0
0.854004 0 0
0.798675 -0.0192799 0
0.794325 -0.00991845 0
0.791016 0 0
0.808973 -0.0367117 0
0.803299 -0.0281281 0
0.798675 -0.0192799 0
0.742753 -0.0333308 0
0.737064 -0.0255843 0
0.732459 -0.0175643 0
0.673592 -0.0299176 0
0.667923 -0.0230343 0
0.663358 -0.0158697 0
0.798675 -0.0192799 0
0.794325 -0.00991845 0
0.791016 0 0
0.732459 -0.0175643 0
0.728238 -0.00904694 0
0.725098 0 0
0.663358 -0.0158697 0
0.659249 -0.00821978 0
0.65625 0 0
0.81067 -0.10478 0
0.794221 -0.0981452 0
0.778408 -0.0916432 0
0.737805 -0.0884053 0
0.721678 -0.082892 0
0.706137 -0.077493 0
0.660256 -0.073058 0
0.644623 -0.0685328 0
0.62953 -0.0641047 0
0.778408 -0.0916432 0
0.76379 -0.0852482 0
0.749975 -0.079045 0
0.706137 -0.077493 0
0.691664 -0.0721933 0
0.67793 -0.0670689 0
0.62953 -0.0641047 0
0.615411 -0.0597737 0
0.601968 -0.0556066 0
0.660256 -0.073058 0
0.644623 -0.0685328 0
0.62953 -0.0641047 0
0.578171 -0.0574334 0
0.56306 -0.0538564 0
0.548507 -0.050365 0
0.490822 -0.0428224 0
0.476401 -0.0401489 0
0.462555 -0.0375425 0
0.62953 -0.0641047 0
0.615411 -0.0597737 0
0.601968 -0.0556066 0
0.548507 -0.050365 0
0.53486 -0.0469607 0
0.521876 -0.0437042 0
0.462555 -0.0375425 0
0.449583 -0.0350064 0
0.437272 -0.0325955 0
0.749975 -0.079045 0
0.73725 -0.0729086 0
0.725471 -0.0669493 0
0.67793 -0.0670689 0
0.665204 -0.0620101 0
0.653367 -0.0571118 0
0.601968 -0.0556066 0
0.589446 -0.0515173 0
0.577739 -0.0475862 0
0.725471 -0.0669493 0
0.714515 -0.0609582 0
0.70457 -0.0550224 0
0.653367 -0.0571118 0
0.642349 -0.0521758 0
0.632311 -0.0472737 0
0.577739 -0.0475862 0
0.566817 -0.0436346 0
0.556818 -0.0397121 0
0.601968 -0.0556066 0
0.589446 -0.0515173 0
0.577739 -0.0475862 0
0.521876 -0.0437042 0
0.509732 -0.0405271 0
0.498353 -0.0375078 0
0.437272 -0.0325955 0
0.425745 -0.0302589 0
0.414941 -0.0280674 0
0.577739 -0.0475862 0
0.566817 -0.0436346 0
0.556818 -0.0397121 0
0.498353 -0.0375078 0
0.487695 -0.0344923 0
0.477896 -0.0315191 0
0.414941 -0.0280674 0
0.404798 -0.0259015 0
0.39544 -0.0237914 0
0.490822 -0.0428224 0
0.476401 -0.0401489 0
0.462555 -0.0375425 0
0.397321 -0.0282246 0
0.38383 -0.0264527 0
0.370961 -0.0247371 0
0.293126 -0.015174 0
0.281543 -0.0142677 0
0.27052 -0.0133931 0
0.462555 -0.0375425 0
0.449583 -0.0350064 0
0.437272 -0.0325955 0
0.370961 -0.0247371 0
0.358926 -0.0230725 0
0.347572 -0.0215033 0
0.27052 -0.0133931 0
0.260218 -0.012538 0
0.250521 -0.0117368 0
0.293126 -0.015174 0
0.281543 -0.0142677 0
0.27052 -0.0133931 0
0.170391 -0.00455739 0
0.162443 -0.00427378 0
0.154869 -0.00401257 0
0 0 0
0 0 0
0 0 0
0.27052 -0.0133931 0
0.260218 -0.012538 0
0.250521 -0.0117368 0
0.154869 -0.00401257 0
0.147738 -0.0037585 0
0.141018 -0.00353573 0
0 0 0
0 0 0
0 0 0
0.437272 -0.0325955 0
0.425745 -0.0302589 0
0.414941 -0.0280674 0
0.347572 -0.0215033 0
0.336942 -0.0199825 0
0.327016 -0.0185734 0
0.250521 -0.0117368 0
0.241428 -0.0109466 0
0.232939 -0.010222 0
0.414941 -0.0280674 0
0.404798 -0.0259015 0
0.39544 -0.0237914 0
0.327016 -0.0185734 0
0.317681 -0.0171806 0
0.309062 -0.015836 0
0.232939 -0.010222 0
0.224942 -0.00949881 0
0.217541 -0.0088081 0
0.250521 -0.0117368 0
0.241428 -0.0109466 0
0.232939 -0.010222 0
0.141018 -0.00353573 0
0.134658 -0.00330134 0
0.128715 -0.00310007 0
0 0 0
0 0 0
0 0 0
0.232939 -0.010222 0
0.224942 -0.00949881 0
0.217541 -0.0088081 0
0.128715 -0.00310007 0
0.123064 -0.0028813 0
0.117847 -0.00268464 0
0 0 0
0 0 0
0 0 0
0.70457 -0.0550224 0
0.695475 -0.0489435 0
0.687446 -0.0428253 0
0.632311 -0.0472737 0
0.623152 -0.04221 0
0.615057 -0.0370762 0
0.556818 -0.0397121 0
0.547692 -0.0356299 0
0.539608 -0.0314649 0
0.687446 -0.0428253 0
0.679992 -0.0364653 0
0.673592 -0.0299176 0
0.615057 -0.0370762 0
0.607607 -0.0316779 0
0.601226 -0.0260675 0
0.539608 -0.0314649 0
0.532218 -0.0270286 0
0.525906 -0.0223628 0
0.556818 -0.0397121 0
0.547692 -0.0356299 0
0.539608 -0.0314649 0
0.477896 -0.0315191 0
0.468913 -0.0284127 0
0.46093 -0.0252348 0
0.39544 -0.0237914 0
0.386803 -0.0215909 0
0.379082 -0.0193433 0
0.539608 -0.0314649 0
0.532218 -0.0270286 0
0.525906 -0.0223628 0
0.46093 -0.0252348 0
0.453659 -0.0217973 0
0.447461 -0.0181237 0
0.379082 -0.0193433 0
0.37204 -0.0168686 0
0.366034 -0.0141726 0
0.673592 -0.0299176 0
0.667923 -0.0230343 0
0.663358 -0.0158697 0
0.601226 -0.0260675 0
0.59563 -0.0201137 0
0.591167 -0.013876 0
0.525906 -0.0223628 0
0.520417 -0.0173521 0
0.51608 -0.0120551 0
0.663358 -0.0158697 0
0.659249 -0.00821978 0
0.65625 0 0
0.591167 -0.013876 0
0.587243 -0.00718472 0
0.584473 0 0
0.51608 -0.0120551 0
0.512336 -0.00631863 0
0.509766 0 0
0.525906 -0.0223628 0
0.520417 -0.0173521 0
0.51608 -0.0120551 0
0.447461 -0.0181237 0
0.442111 -0.0141061 0
0.437934 -0.00981244 0
0.366034 -0.0141726 0
0.360868 -0.0111508 0
0.35688 -0.00786241 0
0.51608 -0.0120551 0
0.512336 -0.00631863 0
0.509766 0 0
0.437934 -0.00981244 0
0.434419 -0.00512709 0
0.432129 0 0
0.35688 -0.00786241 0
0.353602 -0.00421673 0
0.351562 0 0
0.39544 -0.0237914 0
0.386803 -0.0215909 0
0.379082 -0.0193433 0
0.309062 -0.015836 0
0.301038 -0.0144256 0
0.293823 -0.0129987 0
0.217541 -0.0088081 0
0.2106 -0.00807859 0
0.204311 -0.00735346 0
0.379082 -0.0193433 0
0.37204 -0.0168686 0
0.366034 -0.0141726 0
0.293823 -0.0129987 0
0.287187 -0.0114074 0
0.281494 -0.00964543 0
0.204311 -0.00735346 0
0.198481 -0.00654319 0
0.193437 -0.00564287 0
0.217541 -0.0088081 0
0.2106 -0.00807859 0
0.204311 -0.00735346 0
0.117847 -0.00268464 0
0.112893 -0.00245781 0
0.108438 -0.00224298 0
0 0 0
0 0 0
0 0 0
0.204311 -0.00735346 0
0.198481 -0.00654319 0
0.193437 -0.00564287 0
0.108438 -0.00224298 0
0.104236 -0.00198194 0
0.100632 -0.00170158 0
0 0 0
0 0 0
0 0 0
0.366034 -0.0141726 0
0.360868 -0.0111508 0
0.35688 -0.00786241 0
0.281494 -0.00964543 0
0.276574 -0.00761078 0
0.272809 -0.00535964 0
0.193437 -0.00564287 0
0.189044 -0.00457479 0
0.185688 -0.00334983 0
0.35688 -0.00786241 0
0.353602 -0.00421673 0
0.351562 0 0
0.272809 -0.00535964 0
0.269797 -0.00282457 0
0.268066 0 0
0.185688 -0.00334983 0
0.183063 -0.00192017 0
0.181641 0 0
0.193437 -0.00564287 0
0.189044 -0.00457479 0
0.185688 -0.00334983 0
0.100632 -0.00170158 0
0.0974108 -0.0013601 0
0.0950509 -0.000964 0
0 0 0
0 0 0
0 0 0
0.185688 -0.00334983 0
0.183063 -0.00192017 0
0.181641 0 0
0.0950509 -0.000964 0
0.0931449 -0.000471434 0
0.0922852 0 0
0 0 0
0 0 0
0 0 0
1.63267 -0.312099 0
1.6013 -0.335584 0
1.56504 -0.355543 0
1.55953 -0.267642 0
1.53019 -0.290329 0
1.49818 -0.308705 0
1.48366 -0.233131 0
1.46057 -0.254401 0
1.43428 -0.271846 0
1.56504 -0.355543 0
1.52914 -0.367574 0
1.48974 -0.375591 0
1.49818 -0.308705 0
1.46548 -0.321815 0
1.43091 -0.330356 0
1.43428 -0.271846 0
1.40777 -0.285075 0
1.37889 -0.294121 0
1.48366 -0.233131 0
1.46057 -0.254401 0
1.43428 -0.271846 0
1.42188 -0.205206 0
1.40168 -0.222662 0
1.37887 -0.237211 0
1.34642 -0.176624 0
1.32794 -0.192113 0
1.3072 -0.205158 0
1.43428 -0.271846 0
1.40777 -0.285075 0
1.37889 -0.294121 0
1.37887 -0.237211 0
1.35509 -0.248334 0
1.32925 -0.256257 0
1.3072 -0.205158 0
1.28579 -0.215533 0
1.26264 -0.223213 0
1.48974 -0.375591 0
1.45442 -0.376746 0
1.41711 -0.373733 0
1.43091 -0.330356 0
1.39918 -0.333789 0
1.36658 -0.333644 0
1.37889 -0.294121 0
1.35235 -0.299111 0
1.32436 -0.30037 0
1.41711 -0.373733 0
1.3852 -0.366228 0
1.35244 -0.355803 0
1.36658 -0.333644 0
1.33796 -0.329539 0
1.30919 -0.322572 0
1.32436 -0.30037 0
1.29941 -0.298226 0
1.27376 -0.293102 0
1.37889 -0.294121 0
1.35235 -0.299111 0
1.32436 -0.30037 0
1.32925 -0.256257 0
1.30466 -0.260837 0
1.27872 -0.262503 0
1.26264 -0.223213 0
1.24061 -0.228194 0
1.21752 -0.230708 0
1.32436 -0.30037 0
1.29941 -0.298226 0
1.27376 -0.293102 0
1.27872 -0.262503 0
1.25501 -0.261437 0
1.23063 -0.258006 0
1.21752 -0.230708 0
1.19625 -0.230874 0
1.17445 -0.228936 0
1.34642 -0.176624 0
1.32794 -0.192113 0
1.3072 -0.205158 0
1.26908 -0.155442 0
1.25311 -0.168879 0
1.23509 -0.180299 0
1.19581 -0.134388 0
1.18112 -0.14628 0
1.16462 -0.156474 0
1.3072 -0.205158 0
1.28579 -0.215533 0
1.26264 -0.223213 0
1.23509 -0.180299 0
1.2165 -0.189433 0
1.19625 -0.196296 0
1.16462 -0.156474 0
1.1475 -0.164715 0
1.12888 -0.171028 0
1.19581 -0.134388 0
1.18112 -0.14628 0
1.16462 -0.156474 0
1.12001 -0.115107 0
1.10637 -0.125307 0
1.09103 -0.134077 0
1.04075 -0.0966041 0
1.02791 -0.105492 0
1.0135 -0.113224 0
1.16462 -0.156474 0
1.1475 -0.164715 0
1.12888 -0.171028 0
1.09103 -0.134077 0
1.07514 -0.141249 0
1.05787 -0.146817 0
1.0135 -0.113224 0
0.998637 -0.119637 0
0.982488 -0.124708 0
1.26264 -0.223213 0
1.24061 -0.228194 0
1.21752 -0.230708 0
1.19625 -0.196296 0
1.17682 -0.200842 0
1.15623 -0.203269 0
1.12888 -0.171028 0
1.11081 -0.175356 0
1.09171 -0.177875 0
1.21752 -0.230708 0
1.19625 -0.230874 0
1.17445 -0.228936 0
1.15623 -0.203269 0
1.13701 -0.203686 0
1.1171 -0.20227 0
1.09171 -0.177875 0
1.07368 -0.178653 0
1.05504 -0.177847 0
1.12888 -0.171028 0
1.11081 -0.175356 0
1.09171 -0.177875 0
1.05787 -0.146817 0
1.04105 -0.15076 0
1.02324 -0.153169 0
0.982488 -0.124708 0
0.966707 -0.1284 0
0.949999 -0.130786 0
1.09171 -0.177875 0
1.07368 -0.178653 0
1.05504 -0.177847 0
1.02324 -0.153169 0
1.00635 -0.154123 0
0.988849 -0.153703 0
0.949999 -0.130786 0
0.934039 -0.131913 0
0.917499 -0.131844 0
1.35244 -0.355803 0
1.32647 -0.342895 0
1.30074 -0.327627 0
1.30919 -0.322572 0
1.28584 -0.312728 0
1.26301 -0.301381 0
1.27376 -0.293102 0
1.25218 -0.285658 0
1.23063 -0.27629 0
1.30074 -0.327627 0
1.28058 -0.31164 0
1.26123 -0.294738 0
1.26301 -0.301381 0
1.24448 -0.288542 0
1.22682 -0.274673 0
1.23063 -0.27629 0
1.21246 -0.265473 0
1.19477 -0.253522 0
1.27376 -0.293102 0
1.25218 -0.285658 0
1.23063 -0.27629 0
1.23063 -0.258006 0
1.20964 -0.252572 0
1.18864 -0.245461 0
1.17445 -0.228936 0
1.1554 -0.225159 0
1.13638 -0.21987 0
1.23063 -0.27629 0
1.21246 -0.265473 0
1.19477 -0.253522 0
1.18864 -0.245461 0
1.17071 -0.237116 0
1.15326 -0.227743 0
1.13638 -0.21987 0
1.11975 -0.213338 0
1.10346 -0.205769 0
1.26123 -0.294738 0
1.24717 -0.278027 0
1.23452 -0.260716 0
1.22682 -0.274673 0
1.2135 -0.26002 0
1.20135 -0.245183 0
1.19477 -0.253522 0
1.18063 -0.240995 0
1.16752 -0.228086 0
1.23452 -0.260716 0
1.22529 -0.244234 0
1.21718 -0.228327 0
1.20135 -0.245183 0
1.19182 -0.230283 0
1.18357 -0.215376 0
1.16752 -0.228086 0
1.15678 -0.215147 0
1.14726 -0.202418 0
1.19477 -0.253522 0
1.18063 -0.240995 0
1.16752 -0.228086 0
1.15326 -0.227743 0
1.13913 -0.217732 0
1.12589 -0.20722 0
1.10346 -0.205769 0
1.08987 -0.19746 0
1.07697 -0.188616 0
1.16752 -0.228086 0
1.15678 -0.215147 0
1.14726 -0.202418 0
1.12589 -0.20722 0
1.11486 -0.196477 0
1.10484 -0.18557 0
1.07697 -0.188616 0
1.06586 -0.179429 0
1.05562 -0.170041 0
1.17445 -0.228936 0
1.1554 -0.225159 0
1.13638 -0.21987 0
1.1171 -0.20227 0
1.09937 -0.199292 0
1.08145 -0.194987 0
1.05504 -0.177847 0
1.0382 -0.175664 0
1.0212 -0.172314 0
1.13638 -0.21987 0
1.11975 -0.213338 0
1.10346 -0.205769 0
1.08145 -0.194987 0
1.06549 -0.189634 0
1.0497 -0.183338 0
1.0212 -0.172314 0
1.00588 -0.168008 0
0.990716 -0.162859 0
1.05504 -0.177847 0
1.0382 -0.175664 0
1.0212 -0.172314 0
0.988849 -0.153703 0
0.972863 -0.152105 0
0.956676 -0.149464 0
0.917499 -0.131844 0
0.90222 -0.130734 0
0.886725 -0.128704 0
1.0212 -0.172314 0
1.00588 -0.168008 0
0.990716 -0.162859 0
0.956676 -0.149464 0
0.941892 -0.145984 0
0.927193 -0.141741 0
0.886725 -0.128704 0
0.872438 -0.12592 0
0.858207 -0.122448 0
1.10346 -0.205769 0
1.08987 -0.19746 0
1.07697 -0.188616 0
1.0497 -0.183338 0
1.03624 -0.176426 0
1.02332 -0.169049 0
0.990716 -0.162859 0
0.977522 -0.157125 0
0.96479 -0.15094 0
1.07697 -0.188616 0
1.06586 -0.179429 0
1.05562 -0.170041 0
1.02332 -0.169049 0
1.01202 -0.161387 0
1.00146 -0.153448 0
0.96479 -0.15094 0
0.953461 -0.144431 0
0.942759 -0.13765 0
0.990716 -0.162859 0
0.977522 -0.157125 0
0.96479 -0.15094 0
0.927193 -0.141741 0
0.914159 -0.136977 0
0.901498 -0.131792 0
0.858207 -0.122448 0
0.845423 -0.118498 0
0.832962 -0.11417 0
0.96479 -0.15094 0
0.953461 -0.144431 0
0.942759 -0.13765 0
0.901498 -0.131792 0
0.890046 -0.126334 0
0.87913 -0.120641 0
0.832962 -0.11417 0
0.82158 -0.109588 0
0.81067 -0.10478 0
1.04075 -0.0966041 0
1.02791 -0.105492 0
1.0135 -0.113224 0
0.961201 -0.0807812 0
0.948857 -0.0882182 0
0.935085 -0.0947143 0
0.880768 -0.0645854 0
0.86846 -0.070915 0
0.854806 -0.0764814 0
1.0135 -0.113224 0
0.998637 -0.119637 0
0.982488 -0.124708 0
0.935085 -0.0947143 0
0.920894 -0.100124 0
0.905496 -0.104423 0
0.854806 -0.0764814 0
0.840841 -0.0811565 0
0.825751 -0.0849186 0
0.880768 -0.0645854 0
0.86846 -0.070915 0
0.854806 -0.0764814 0
0.798317 -0.0495217 0
0.786034 -0.0547161 0
0.772463 -0.059296 0
0.710851 -0.0345462 0
0.698673 -0.0387283 0
0.685171 -0.0424463 0
0.854806 -0.0764814 0
0.840841 -0.0811565 0
0.825751 -0.0849186 0
0.772463 -0.059296 0
0.758622 -0.0631549 0
0.743696 -0.0662788 0
0.685171 -0.0424463 0
0.671432 -0.0456061 0
0.656603 -0.0481977 0
0.982488 -0.124708 0
0.966707 -0.1284 0
0.949999 -0.130786 0
0.905496 -0.104423 0
0.890381 -0.107582 0
0.874385 -0.109655 0
0.825751 -0.0849186 0
0.810928 -0.0877392 0
0.795288 -0.089659 0
0.949999 -0.130786 0
0.934039 -0.131913 0
0.917499 -0.131844 0
0.874385 -0.109655 0
0.859022 -0.110687 0
0.843104 -0.110713 0
0.795288 -0.089659 0
0.780234 -0.0907062 0
0.764674 -0.0909064 0
0.825751 -0.0849186 0
0.810928 -0.0877392 0
0.795288 -0.089659 0
0.743696 -0.0662788 0
0.729003 -0.0686431 0
0.713515 -0.0702765 0
0.656603 -0.0481977 0
0.641975 -0.0501967 0
0.626557 -0.0516247 0
0.795288 -0.089659 0
0.780234 -0.0907062 0
0.764674 -0.0909064 0
0.713515 -0.0702765 0
0.698563 -0.0712053 0
0.683118 -0.0714403 0
0.626557 -0.0516247 0
0.611638 -0.0525014 0
0.596243 -0.0528302 0
0.710851 -0.0345462 0
0.698673 -0.0387283 0
0.685171 -0.0424463 0
0.61006 -0.0208345 0
0.598949 -0.0239081 0
0.586378 -0.0266605 0
0.475375 -0.00843593 0
0.467152 -0.0103334 0
0.457288 -0.0120696 0
0.685171 -0.0424463 0
0.671432 -0.0456061 0
0.656603 -0.0481977 0
0.586378 -0.0266605 0
0.573476 -0.0290096 0
0.559369 -0.0309567 0
0.457288 -0.0120696 0
0.446951 -0.0135841 0
0.435286 -0.0148755 0
0.475375 -0.00843593 0
0.467152 -0.0103334 0
0.457288 -0.0120696 0
0.280709 -0.00215487 0
0.27766 -0.00278761 0
0.272998 -0.00337719 0
0 0 0
0 0 0
0 0 0
0.457288 -0.0120696 0
0.446951 -0.0135841 0
0.435286 -0.0148755 0
0.272998 -0.00337719 0
0.267964 -0.00388793 0
0.261552 -0.00432188 0
0 0 0
0 0 0
0 0 0
0.656603 -0.0481977 0
0.641975 -0.0501967 0
0.626557 -0.0516247 0
0.559369 -0.0309567 0
0.545366 -0.0324777 0
0.530487 -0.0335874 0
0.435286 -0.0148755 0
0.423546 -0.0159268 0