# vtk DataFile Version 3.0
#This file was generated by the deal.II library on 2025/1/7 at 22:15:46
ASCII
DATASET UNSTRUCTURED_GRID

POINTS 34560 double
1.1 1.1 0
1.03125 1.09531 0
0.9625 1.09063 0
1.09375 1.03125 0
1.02539 1.02686 0
0.957031 1.02246 0
1.0875 0.9625 0
1.01953 0.958398 0
0.951563 0.954297 0
0.9625 1.09063 0
0.89375 1.08594 0
0.825 1.08125 0
0.957031 1.02246 0
0.888672 1.01807 0
0.820312 1.01367 0
0.951563 0.954297 0
0.883594 0.950195 0
0.815625 0.946094 0
1.0875 0.9625 0
1.01953 0.958398 0
0.951563 0.954297 0
1.08125 0.89375 0
1.01367 0.889941 0
0.946094 0.886133 0
1.075 0.825 0
1.00781 0.821484 0
0.940625 0.817969 0
0.951563 0.954297 0
0.883594 0.950195 0
0.815625 0.946094 0
0.946094 0.886133 0
0.878516 0.882324 0
0.810938 0.878516 0
0.940625 0.817969 0
0.873438 0.814453 0
0.80625 0.810937 0
0.825 1.08125 0
0.75625 1.07656 0
0.6875 1.07187 0
0.820312 1.01367 0
0.751953 1.00928 0
0.683594 1.00488 0
0.815625 0.946094 0
0.747656 0.941992 0
0.679688 0.937891 0
0.6875 1.07187 0
0.61875 1.06719 0
0.55 1.0625 0
0.683594 1.00488 0
0.615234 1.00049 0
0.546875 0.996094 0
0.679688 0.937891 0
0.611719 0.933789 0
0.54375 0.929688 0
0.815625 0.946094 0
0.747656 0.941992 0
0.679688 0.937891 0
0.810938 0.878516 0
0.743359 0.874707 0
0.675781 0.870898 0
0.80625 0.810937 0
0.739063 0.807422 0
0.671875 0.803906 0
0.679688 0.937891 0
0.611719 0.933789 0
0.54375 0.929688 0
0.675781 0.870898 0
0.608203 0.86709 0
0.540625 0.863281 0
0.671875 0.803906 0
0.604688 0.800391 0
0.5375 0.796875 0
1.075 0.825 0
1.00781 0.821484 0
0.940625 0.817969 0
1.06875 0.75625 0
1.00195 0.753027 0
0.935156 0.749805 0
1.0625 0.6875 0
0.996094 0.68457 0
0.929688 0.681641 0
0.940625 0.817969 0
0.873438 0.814453 0
0.80625 0.810937 0
0.935156 0.749805 0
0.868359 0.746582 0
0.801563 0.743359 0
0.929688 0.681641 0
0.863281 0.678711 0
0.796875 0.675781 0
1.0625 0.6875 0
0.996094 0.68457 0
0.929688 0.681641 0
1.05625 0.61875 0
0.990234 0.616113 0
0.924219 0.613477 0
1.05 0.55 0
0.984375 0.547656 0
0.91875 0.545313 0
0.929688 0.681641 0
0.863281 0.678711 0
0.796875 0.675781 0
0.924219 0.613477 0
0.858203 0.61084 0
0.792188 0.608203 0
0.91875 0.545313 0
0.853125 0.542969 0
0.7875 0.540625 0
0.80625 0.810937 0
0.739063 0.807422 0
0.671875 0.803906 0
0.801563 0.743359 0
0.734766 0.740137 0
0.667969 0.736914 0
0.796875 0.675781 0
0.730469 0.672852 0
0.664062 0.669922 0
0.671875 0.803906 0
0.604688 0.800391 0
0.5375 0.796875 0
0.667969 0.736914 0
0.601172 0.733691 0
0.534375 0.730469 0
0.664062 0.669922 0
0.597656 0.666992 0
0.53125 0.664062 0
0.796875 0.675781 0
0.730469 0.672852 0
0.664062 0.669922 0
0.792188 0.608203 0
0.726172 0.605566 0
0.660156 0.60293 0
0.7875 0.540625 0
0.721875 0.538281 0
0.65625 0.535937 0
0.664062 0.669922 0
0.597656 0.666992 0
0.53125 0.664062 0
0.660156 0.60293 0
0.594141 0.600293 0
0.528125 0.597656 0
0.65625 0.535937 0
0.590625 0.533594 0
0.525 0.53125 0
0.55 1.0625 0
0.48125 1.05781 0
0.4125 1.05313 0
0.546875 0.996094 0
0.478516 0.991699 0
0.410156 0.987305 0
0.54375 0.929688 0
0.475781 0.925586 0
0.407813 0.921484 0
0.4125 1.05313 0
0.34375 1.04844 0
0.275 1.04375 0
0.410156 0.987305 0
0.341797 0.98291 0
0.273438 0.978516 0
0.407813 0.921484 0
0.339844 0.917383 0
0.271875 0.913281 0
0.54375 0.929688 0
0.475781 0.925586 0
0.407813 0.921484 0
0.540625 0.863281 0
0.473047 0.859473 0
0.405469 0.855664 0
0.5375 0.796875 0
0.470313 0.793359 0
0.403125 0.789844 0
0.407813 0.921484 0
0.339844 0.917383 0
0.271875 0.913281 0
0.405469 0.855664 0
0.337891 0.851855 0
0.270313 0.848047 0
0.403125 0.789844 0
0.335938 0.786328 0
0.26875 0.782813 0
0.275 1.04375 0
0.20625 1.03906 0
0.1375 1.03437 0
0.273438 0.978516 0
0.205078 0.974121 0
0.136719 0.969727 0
0.271875 0.913281 0
0.203906 0.90918 0
0.135938 0.905078 0
0.1375 1.03437 0
0.06875 1.02969 0
0 1.025 0
0.136719 0.969727 0
0.0683594 0.965332 0
0 0.960937 0
0.135938 0.905078 0
0.0679688 0.900977 0
0 0.896875 0
0.271875 0.913281 0
0.203906 0.90918 0
0.135938 0.905078 0
0.270313 0.848047 0
0.202734 0.844238 0
0.135156 0.84043 0
0.26875 0.782813 0
0.201563 0.779297 0
0.134375 0.775781 0
0.135938 0.905078 0
0.0679688 0.900977 0
0 0.896875 0
0.135156 0.84043 0
0.0675781 0.836621 0
0 0.832812 0
0.134375 0.775781 0
0.0671875 0.772266 0
0 0.76875 0
0.5375 0.796875 0
0.470313 0.793359 0
0.403125 0.789844 0
0.534375 0.730469 0
0.467578 0.727246 0
0.400781 0.724023 0
0.53125 0.664062 0
0.464844 0.661133 0
0.398438 0.658203 0
0.403125 0.789844 0
0.335938 0.786328 0
0.26875 0.782813 0
0.400781 0.724023 0
0.333984 0.720801 0
0.267188 0.717578 0
0.398438 0.658203 0
0.332031 0.655273 0
0.265625 0.652344 0
0.53125 0.664062 0
0.464844 0.661133 0
0.398438 0.658203 0
0.528125 0.597656 0
0.462109 0.59502 0
0.396094 0.592383 0
0.525 0.53125 0
0.459375 0.528906 0
0.39375 0.526563 0
0.398438 0.658203 0
0.332031 0.655273 0
0.265625 0.652344 0
0.396094 0.592383 0
0.330078 0.589746 0
0.264062 0.587109 0
0.39375 0.526563 0
0.328125 0.524219 0
0.2625 0.521875 0
0.26875 0.782813 0
0.201563 0.779297 0
0.134375 0.775781 0
0.267188 0.717578 0
0.200391 0.714355 0
0.133594 0.711133 0
0.265625 0.652344 0
0.199219 0.649414 0
0.132812 0.646484 0
0.134375 0.775781 0
0.0671875 0.772266 0
0 0.76875 0
0.133594 0.711133 0
0.0667969 0.70791 0
0 0.704687 0
0.132812 0.646484 0
0.0664062 0.643555 0
0 0.640625 0
0.265625 0.652344 0
0.199219 0.649414 0
0.132812 0.646484 0
0.264062 0.587109 0
0.198047 0.584473 0
0.132031 0.581836 0
0.2625 0.521875 0
0.196875 0.519531 0
0.13125 0.517187 0
0.132812 0.646484 0
0.0664062 0.643555 0
0 0.640625 0
0.132031 0.581836 0
0.0660156 0.579199 0
0 0.576562 0
0.13125 0.517187 0
0.065625 0.514844 0
0 0.5125 0
1.05 0.55 0
0.984375 0.547656 0
0.91875 0.545313 0
1.04375 0.48125 0
0.978516 0.479199 0
0.913281 0.477148 0
1.0375 0.4125 0
0.972656 0.410742 0
0.907813 0.408984 0
0.91875 0.545313 0
0.853125 0.542969 0
0.7875 0.540625 0
0.913281 0.477148 0
0.848047 0.475098 0
0.782813 0.473047 0
0.907813 0.408984 0
0.842969 0.407227 0
0.778125 0.405469 0
1.0375 0.4125 0
0.972656 0.410742 0
0.907813 0.408984 0
1.03125 0.34375 0
0.966797 0.342285 0
0.902344 0.34082 0
1.025 0.275 0
0.960937 0.273828 0
0.896875 0.272656 0
0.907813 0.408984 0
0.842969 0.407227 0
0.778125 0.405469 0
0.902344 0.34082 0
0.837891 0.339355 0
0.773438 0.337891 0
0.896875 0.272656 0
0.832812 0.271484 0
0.76875 0.270313 0
0.7875 0.540625 0
0.721875 0.538281 0
0.65625 0.535937 0
0.782813 0.473047 0
0.717578 0.470996 0
0.652344 0.468945 0
0.778125 0.405469 0
0.713281 0.403711 0
0.648438 0.401953 0
0.65625 0.535937 0
0.590625 0.533594 0
0.525 0.53125 0
0.652344 0.468945 0
0.587109 0.466895 0
0.521875 0.464844 0
0.648438 0.401953 0
0.583594 0.400195 0
0.51875 0.398438 0
0.778125 0.405469 0
0.713281 0.403711 0
0.648438 0.401953 0
0.773438 0.337891 0
0.708984 0.336426 0
0.644531 0.334961 0
0.76875 0.270313 0
0.704687 0.269141 0
0.640625 0.267969 0
0.648438 0.401953 0
0.583594 0.400195 0
0.51875 0.398438 0
0.644531 0.334961 0
0.580078 0.333496 0
0.515625 0.332031 0
0.640625 0.267969 0
0.576562 0.266797 0
0.5125 0.265625 0
1.025 0.275 0
0.960937 0.273828 0
0.896875 0.272656 0
1.01875 0.20625 0
0.955078 0.205371 0
0.891406 0.204492 0
1.0125 0.1375 0
0.949219 0.136914 0
0.885937 0.136328 0
0.896875 0.272656 0
0.832812 0.271484 0
0.76875 0.270313 0
0.891406 0.204492 0
0.827734 0.203613 0
0.764062 0.202734 0
0.885937 0.136328 0
0.822656 0.135742 0
0.759375 0.135156 0
1.0125 0.1375 0
0.949219 0.136914 0
0.885937 0.136328 0
1.00625 0.06875 0
0.943359 0.068457 0
0.880469 0.0681641 0
1 0 0
0.9375 0 0
0.875 0 0
0.885937 0.136328 0
0.822656 0.135742 0
0.759375 0.135156 0
0.880469 0.0681641 0
0.817578 0.0678711 0
0.754687 0.0675781 0
0.875 0 0
0.8125 0 0
0.75 0 0
0.76875 0.270313 0
0.704687 0.269141 0
0.640625 0.267969 0
0.764062 0.202734 0
0.700391 0.201855 0
0.636719 0.200977 0
0.759375 0.135156 0
0.696094 0.13457 0
0.632812 0.133984 0
0.640625 0.267969 0
0.576562 0.266797 0
0.5125 0.265625 0
0.636719 0.200977 0
0.573047 0.200098 0
0.509375 0.199219 0
0.632812 0.133984 0
0.569531 0.133398 0
0.50625 0.132812 0
0.759375 0.135156 0
0.696094 0.13457 0
0.632812 0.133984 0
0.754687 0.0675781 0
0.691797 0.0672852 0
0.628906 0.0669922 0
0.75 0 0
0.6875 0 0
0.625 0 0
0.632812 0.133984 0
0.569531 0.133398 0
0.50625 0.132812 0
0.628906 0.0669922 0
0.566016 0.0666992 0
0.503125 0.0664062 0
0.625 0 0
0.5625 0 0
0.5 0 0
0.525 0.53125 0
0.459375 0.528906 0
0.39375 0.526563 0
0.521875 0.464844 0
0.456641 0.462793 0
0.391406 0.460742 0
0.51875 0.398438 0
0.453906 0.39668 0
0.389063 0.394922 0
0.39375 0.526563 0
0.328125 0.524219 0
0.2625 0.521875 0
0.391406 0.460742 0
0.326172 0.458691 0
0.260938 0.456641 0
0.389063 0.394922 0
0.324219 0.393164 0
0.259375 0.391406 0
0.51875 0.398438 0
0.453906 0.39668 0
0.389063 0.394922 0
0.515625 0.332031 0
0.451172 0.330566 0
0.386719 0.329102 0
0.5125 0.265625 0
0.448437 0.264453 0
0.384375 0.263281 0
0.389063 0.394922 0
0.324219 0.393164 0
0.259375 0.391406 0
0.386719 0.329102 0
0.322266 0.327637 0
0.257812 0.326172 0
0.384375 0.263281 0
0.320312 0.262109 0
0.25625 0.260937 0
0.2625 0.521875 0
0.196875 0.519531 0
0.13125 0.517187 0
0.260938 0.456641 0
0.195703 0.45459 0
0.130469 0.452539 0
0.259375 0.391406 0
0.194531 0.389648 0
0.129688 0.387891 0
0.13125 0.517187 0
0.065625 0.514844 0
0 0.5125 0
0.130469 0.452539 0
0.0652344 0.450488 0
0 0.448437 0
0.129688 0.387891 0
0.0648438 0.386133 0
0 0.384375 0
0.259375 0.391406 0
0.194531 0.389648 0
0.129688 0.387891 0
0.257812 0.326172 0
0.193359 0.324707 0
0.128906 0.323242 0
0.25625 0.260937 0
0.192187 0.259766 0
0.128125 0.258594 0
0.129688 0.387891 0
0.0648438 0.386133 0
0 0.384375 0
0.128906 0.323242 0
0.0644531 0.321777 0
0 0.320312 0
0.128125 0.258594 0
0.0640625 0.257422 0
0 0.25625 0
0.5125 0.265625 0
0.448437 0.264453 0
0.384375 0.263281 0
0.509375 0.199219 0
0.445703 0.19834 0
0.382031 0.197461 0
0.50625 0.132812 0
0.442969 0.132227 0
0.379688 0.131641 0
0.384375 0.263281 0
0.320312 0.262109 0
0.25625 0.260937 0
0.382031 0.197461 0
0.318359 0.196582 0
0.254687 0.195703 0
[...]
POINT_DATA 34560
VECTORS v double
1.23406 -0.288581 0
1.21982 -0.258144 0
1.20693 -0.229899 0
1.1992 -0.271463 0
1.18311 -0.244322 0
1.16908 -0.218356 0
1.16028 -0.254546 0
1.14327 -0.22976 0
1.12799 -0.205932 0
1.20693 -0.229899 0
1.19627 -0.203264 0
1.1868 -0.178598 0
1.16908 -0.218356 0
1.1567 -0.193904 0
1.14619 -0.170913 0
1.12799 -0.205932 0
1.1145 -0.183352 0
1.10265 -0.161926 0
1.16028 -0.254546 0
1.14327 -0.22976 0
1.12799 -0.205932 0
1.11616 -0.234479 0
1.09794 -0.212379 0
1.08161 -0.191013 0
1.06533 -0.215428 0
1.04659 -0.195746 0
1.02966 -0.176533 0
1.12799 -0.205932 0
1.1145 -0.183352 0
1.10265 -0.161926 0
1.08161 -0.191013 0
1.06694 -0.170592 0
1.05406 -0.151108 0
1.02966 -0.176533 0
1.01442 -0.158037 0
1.0009 -0.140259 0
1.1868 -0.178598 0
1.1786 -0.15563 0
1.17139 -0.134402 0
1.14619 -0.170913 0
1.1365 -0.14942 0
1.12844 -0.129373 0
1.10265 -0.161926 0
1.09186 -0.141835 0
1.08257 -0.122963 0
1.17139 -0.134402 0
1.16487 -0.114799 0
1.15913 -0.0967393 0
1.12844 -0.129373 0
1.12065 -0.110744 0
1.11421 -0.0935384 0
1.08257 -0.122963 0
1.0738 -0.105423 0
1.06634 -0.0891019 0
1.10265 -0.161926 0
1.09186 -0.141835 0
1.08257 -0.122963 0
1.05406 -0.151108 0
1.04225 -0.132672 0
1.03205 -0.115315 0
1.0009 -0.140259 0
0.98851 -0.123363 0
0.977694 -0.107357 0
1.08257 -0.122963 0
1.0738 -0.105423 0
1.06634 -0.0891019 0
1.03205 -0.115315 0
1.02247 -0.0990577 0
1.01428 -0.0838685 0
0.977694 -0.107357 0
0.967595 -0.092309 0
0.958885 -0.078199 0
1.06533 -0.215428 0
1.04659 -0.195746 0
1.02966 -0.176533 0
1.00912 -0.19582 0
0.990169 -0.178407 0
0.972966 -0.161261 0
0.948791 -0.176981 0
0.929732 -0.161572 0
0.912314 -0.146292 0
1.02966 -0.176533 0
1.01442 -0.158037 0
1.0009 -0.140259 0
0.972966 -0.161261 0
0.957357 -0.144637 0
0.943422 -0.128569 0
0.912314 -0.146292 0
0.896439 -0.1314 0
0.882178 -0.116929 0
0.948791 -0.176981 0
0.929732 -0.161572 0
0.912314 -0.146292 0
0.883783 -0.156902 0
0.864611 -0.143545 0
0.847085 -0.130217 0
0.814295 -0.137886 0
0.795222 -0.126402 0
0.777751 -0.114857 0
0.912314 -0.146292 0
0.896439 -0.1314 0
0.882178 -0.116929 0
0.847085 -0.130217 0
0.83105 -0.117141 0
0.816625 -0.104362 0
0.777751 -0.114857 0
0.761716 -0.103447 0
0.747264 -0.0922306 0
1.0009 -0.140259 0
0.98851 -0.123363 0
0.977694 -0.107357 0
0.943422 -0.128569 0
0.930603 -0.113226 0
0.919314 -0.0986286 0
0.882178 -0.116929 0
0.869051 -0.103059 0
0.857415 -0.0898084 0
0.977694 -0.107357 0
0.967595 -0.092309 0
0.958885 -0.078199 0
0.919314 -0.0986286 0
0.908838 -0.0848676 0
0.899719 -0.0719228 0
0.857415 -0.0898084 0
0.846671 -0.0772877 0
0.837263 -0.0654813 0
0.882178 -0.116929 0
0.869051 -0.103059 0
0.857415 -0.0898084 0
0.816625 -0.104362 0
0.803328 -0.0920452 0
0.791512 -0.0802266 0
0.747264 -0.0922306 0
0.733931 -0.081367 0
0.722058 -0.0708978 0
0.857415 -0.0898084 0
0.846671 -0.0772877 0
0.837263 -0.0654813 0
0.791512 -0.0802266 0
0.78063 -0.0690214 0
0.771075 -0.0584348 0
0.722058 -0.0708978 0
0.711158 -0.0609514 0
0.701568 -0.0515371 0
1.15913 -0.0967393 0
1.15375 -0.0801966 0
1.14895 -0.0650228 0
1.11421 -0.0935384 0
1.10783 -0.0776819 0
1.10251 -0.0630937 0
1.06634 -0.0891019 0
1.05918 -0.074042 0
1.05312 -0.0601481 0
1.14895 -0.0650228 0
1.14435 -0.0512353 0
1.14014 -0.0386931 0
1.10251 -0.0630937 0
1.09715 -0.0497682 0
1.0926 -0.0376596 0
1.05312 -0.0601481 0
1.04717 -0.047459 0
1.04211 -0.0358788 0
1.06634 -0.0891019 0
1.05918 -0.074042 0
1.05312 -0.0601481 0
1.01428 -0.0838685 0
1.00653 -0.069774 0
0.999927 -0.0567639 0
0.958885 -0.078199 0
0.950696 -0.0650834 0
0.943679 -0.0529395 0
1.05312 -0.0601481 0
1.04717 -0.047459 0
1.04211 -0.0358788 0
0.999927 -0.0567639 0
0.993606 -0.0448377 0
0.988211 -0.0339134 0
0.943679 -0.0529395 0
0.937065 -0.0417879 0
0.931408 -0.0315704 0
1.14014 -0.0386931 0
1.13606 -0.0274162 0
1.13222 -0.0172322 0
1.0926 -0.0376596 0
1.08804 -0.0267412 0
1.08408 -0.0168524 0
1.04211 -0.0358788 0
1.03722 -0.025423 0
1.033 -0.0159816 0
1.13222 -0.0172322 0
1.12854 -0.00814644 0
1.125 0 0
1.08408 -0.0168524 0
1.08017 -0.00798708 0
1.07666 0 0
1.033 -0.0159816 0
1.02893 -0.00755268 0
1.02539 0 0
1.04211 -0.0358788 0
1.03722 -0.025423 0
1.033 -0.0159816 0
0.988211 -0.0339134 0
0.983123 -0.0240304 0
0.978763 -0.015131 0
0.931408 -0.0315704 0
0.926146 -0.0223392 0
0.921638 -0.0140304 0
1.033 -0.0159816 0
1.02893 -0.00755268 0
1.02539 0 0
0.978763 -0.015131 0
0.9747 -0.00717959 0
0.971191 0 0
0.921638 -0.0140304 0
0.917549 -0.00662779 0
0.914062 0 0
0.958885 -0.078199 0
0.950696 -0.0650834 0
0.943679 -0.0529395 0
0.899719 -0.0719228 0
0.891221 -0.0598646 0
0.88388 -0.0486763 0
0.837263 -0.0654813 0
0.828554 -0.0544751 0
0.82099 -0.0442496 0
0.943679 -0.0529395 0
0.937065 -0.0417879 0
0.931408 -0.0315704 0
0.88388 -0.0486763 0
0.877087 -0.0383987 0
0.871257 -0.0289763 0
0.82099 -0.0442496 0
0.814092 -0.0348594 0
0.808158 -0.0262562 0
0.837263 -0.0654813 0
0.828554 -0.0544751 0
0.82099 -0.0442496 0
0.771075 -0.0584348 0
0.762272 -0.0485525 0
0.754609 -0.0393641 0
0.701568 -0.0515371 0
0.692771 -0.0427528 0
0.685101 -0.0345855 0
0.82099 -0.0442496 0
0.814092 -0.0348594 0
0.808158 -0.0262562 0
0.754609 -0.0393641 0
0.747698 -0.0309291 0
0.741755 -0.0232148 0
0.685101 -0.0345855 0
0.678253 -0.0271067 0
0.672372 -0.0202864 0
0.931408 -0.0315704 0
0.926146 -0.0223392 0
0.921638 -0.0140304 0
0.871257 -0.0289763 0
0.865929 -0.020467 0
0.861371 -0.0128235 0
0.808158 -0.0262562 0
0.802805 -0.018506 0
0.798221 -0.0115643 0
0.921638 -0.0140304 0
0.917549 -0.00662779 0
0.914062 0 0
0.861371 -0.0128235 0
0.857378 -0.00604427 0
0.854004 0 0
0.798221 -0.0115643 0
0.794302 -0.00543698 0
0.791016 0 0
0.808158 -0.0262562 0
0.802805 -0.018506 0
0.798221 -0.0115643 0
0.741755 -0.0232148 0
0.736465 -0.0162837 0
0.731953 -0.0101064 0
0.672372 -0.0202864 0
0.667193 -0.014187 0
0.662786 -0.00878023 0
0.798221 -0.0115643 0
0.794302 -0.00543698 0
0.791016 0 0
0.731953 -0.0101064 0
0.728204 -0.0047065 0
0.725098 0 0
0.662786 -0.00878023 0
0.659199 -0.00408773 0
0.65625 0 0
0.814295 -0.137886 0
0.795222 -0.126402 0
0.777751 -0.114857 0
0.741045 -0.118079 0
0.722003 -0.108402 0
0.704545 -0.0986159 0
0.664217 -0.0990448 0
0.64523 -0.0910829 0
0.627793 -0.0829899 0
0.777751 -0.114857 0
0.761716 -0.103447 0
0.747264 -0.0922306 0
0.704545 -0.0986159 0
0.688483 -0.0888921 0
0.674009 -0.0792858 0
0.627793 -0.0829899 0
0.611721 -0.0748908 0
0.597238 -0.066848 0
0.664217 -0.0990448 0
0.64523 -0.0910829 0
0.627793 -0.0829899 0
0.584123 -0.0789759 0
0.565151 -0.0726781 0
0.547706 -0.0662573 0
0.499723 -0.0596758 0
0.480974 -0.0549613 0
0.463693 -0.0501501 0
0.627793 -0.0829899 0
0.611721 -0.0748908 0
0.597238 -0.066848 0
0.547706 -0.0662573 0
0.531567 -0.0598079 0
0.517023 -0.0533858 0
0.463693 -0.0501501 0
0.447646 -0.0452968 0
0.433162 -0.0404594 0
0.747264 -0.0922306 0
0.733931 -0.081367 0
0.722058 -0.0708978 0
0.674009 -0.0792858 0
0.660673 -0.0699365 0
0.648812 -0.0608831 0
0.597238 -0.066848 0
0.583921 -0.0589684 0
0.5721 -0.0512986 0
0.722058 -0.0708978 0
0.711158 -0.0609514 0
0.701568 -0.0515371 0
0.648812 -0.0608831 0
0.637962 -0.0522522 0
0.628429 -0.0440681 0
0.5721 -0.0512986 0
0.561349 -0.0439578 0
0.551937 -0.0369807 0
0.597238 -0.066848 0
0.583921 -0.0589684 0
0.5721 -0.0512986 0
0.517023 -0.0533858 0
0.503671 -0.047068 0
0.491855 -0.0408898 0
0.433162 -0.0404594 0
0.419871 -0.0356776 0
0.408121 -0.0309862 0
0.5721 -0.0512986 0
0.561349 -0.0439578 0
0.551937 -0.0369807 0
0.491855 -0.0408898 0
0.481183 -0.0349469 0
0.471903 -0.0292782 0
0.408121 -0.0309862 0
0.397566 -0.0264491 0
0.388447 -0.0221054 0
0.499723 -0.0596758 0
0.480974 -0.0549613 0
0.463693 -0.0501501 0
0.409491 -0.0397427 0
0.391166 -0.0364924 0
0.374299 -0.0331911 0
0.303648 -0.0211118 0
0.287216 -0.0193551 0
0.272172 -0.017586 0
0.463693 -0.0501501 0
0.447646 -0.0452968 0
0.433162 -0.0404594 0
0.374299 -0.0331911 0
0.358596 -0.029869 0
0.344441 -0.0265774 0
0.272172 -0.017586 0
0.258201 -0.0157948 0
0.245687 -0.0140373 0
0.303648 -0.0211118 0
0.287216 -0.0193551 0
0.272172 -0.017586 0
0.166336 -0.00626385 0
0.155525 -0.00567717 0
0.145882 -0.00510937 0
0 0 0
0 0 0
0 0 0
0.272172 -0.017586 0
0.258201 -0.0157948 0
0.245687 -0.0140373 0
0.145882 -0.00510937 0
0.136935 -0.00451995 0
0.129135 -0.00396119 0
0 0 0
0 0 0
0 0 0
0.433162 -0.0404594 0
0.419871 -0.0356776 0
0.408121 -0.0309862 0
0.344441 -0.0265774 0
0.331458 -0.023336 0
0.320011 -0.0201673 0
0.245687 -0.0140373 0
0.234265 -0.012308 0
0.224268 -0.0106306 0
0.408121 -0.0309862 0
0.397566 -0.0264491 0
0.388447 -0.0221054 0
0.320011 -0.0201673 0
0.309774 -0.0171126 0
0.300988 -0.0141981 0
0.224268 -0.0106306 0
0.215389 -0.00901717 0
0.207835 -0.00748747 0
0.245687 -0.0140373 0
0.234265 -0.012308 0
0.224268 -0.0106306 0
0.129135 -0.00396119 0
0.122054 -0.00341111 0
0.116022 -0.0028916 0
0 0 0
0 0 0
0 0 0
0.224268 -0.0106306 0
0.215389 -0.00901717 0
0.207835 -0.00748747 0
0.116022 -0.0028916 0
0.110715 -0.00239821 0
0.106307 -0.00194041 0
0 0 0
0 0 0
0 0 0
0.701568 -0.0515371 0
0.692771 -0.0427528 0
0.685101 -0.0345855 0
0.628429 -0.0440681 0
0.619729 -0.0364328 0
0.612153 -0.0293386 0
0.551937 -0.0369807 0
0.543411 -0.0304755 0
0.536014 -0.0244374 0
0.685101 -0.0345855 0
0.678253 -0.0271067 0
0.672372 -0.0202864 0
0.612153 -0.0293386 0
0.605451 -0.0228612 0
0.599715 -0.0169826 0
0.536014 -0.0244374 0
0.529536 -0.0189549 0
0.524021 -0.0140117 0
0.551937 -0.0369807 0
0.543411 -0.0304755 0
0.536014 -0.0244374 0
0.471903 -0.0292782 0
0.463595 -0.023984 0
0.456452 -0.0190654 0
0.388447 -0.0221054 0
0.380397 -0.0180344 0
0.373564 -0.0142437 0
0.536014 -0.0244374 0
0.529536 -0.0189549 0
0.524021 -0.0140117 0
0.456452 -0.0190654 0
0.450275 -0.0146184 0
0.445068 -0.0106439 0
0.373564 -0.0142437 0
0.367767 -0.0108358 0
0.36296 -0.00782062 0
0.672372 -0.0202864 0
0.667193 -0.014187 0
0.662786 -0.00878023 0
0.599715 -0.0169826 0
0.594728 -0.0117583 0
0.590513 -0.00716898 0
0.524021 -0.0140117 0
0.519289 -0.00965799 0
0.515314 -0.00586958 0
0.662786 -0.00878023 0
0.659199 -0.00408773 0
0.65625 0 0
0.590513 -0.00716898 0
0.587174 -0.00325919 0
0.584473 0 0
0.515314 -0.00586958 0
0.512235 -0.00268103 0
0.509766 0 0
0.524021 -0.0140117 0
0.519289 -0.00965799 0
0.515314 -0.00586958 0
0.445068 -0.0106439 0
0.440672 -0.00718781 0
0.437026 -0.00422859 0
0.36296 -0.00782062 0
0.358995 -0.00524365 0
0.355759 -0.00307034 0
0.515314 -0.00586958 0
0.512235 -0.00268103 0
0.509766 0 0
0.437026 -0.00422859 0
0.434281 -0.00181886 0
0.432129 0 0
0.355759 -0.00307034 0
0.353392 -0.00134474 0
0.351562 0 0
0.388447 -0.0221054 0
0.380397 -0.0180344 0
0.373564 -0.0142437 0
0.300988 -0.0141981 0
0.293353 -0.0114781 0
0.286975 -0.00893948 0
0.207835 -0.00748747 0
0.201369 -0.00606178 0
0.196053 -0.00472683 0
0.373564 -0.0142437 0
0.367767 -0.0108358 0
0.36296 -0.00782062 0
0.286975 -0.00893948 0
0.281702 -0.00666389 0
0.277442 -0.00466894 0
0.196053 -0.00472683 0
0.19176 -0.00352508 0
0.188386 -0.00247413 0
0.207835 -0.00748747 0
0.201369 -0.00606178 0
0.196053 -0.00472683 0
0.106307 -0.00194041 0
0.102606 -0.00152615 0
0.0996243 -0.0011421 0
0 0 0
0 0 0
0 0 0
0.196053 -0.00472683 0
0.19176 -0.00352508 0
0.188386 -0.00247413 0
0.0996243 -0.0011421 0
0.0972993 -0.000806885 0
0.0954939 -0.000522195 0
0 0 0
0 0 0
0 0 0
0.36296 -0.00782062 0
0.358995 -0.00524365 0
0.355759 -0.00307034 0
0.277442 -0.00466894 0
0.274062 -0.00299619 0
0.271385 -0.00160983 0
0.188386 -0.00247413 0
0.185836 -0.00159928 0
0.1839 -0.000872631 0
0.355759 -0.00307034 0
0.353392 -0.00134474 0
0.351562 0 0
0.271385 -0.00160983 0
0.269495 -0.000564185 0
0.268066 0 0
0.1839 -0.000872631 0
0.182609 -0.000339512 0
0.181641 0 0
0.188386 -0.00247413 0
0.185836 -0.00159928 0
0.1839 -0.000872631 0
0.0954939 -0.000522195 0
0.094233 -0.000299557 0
0.0932812 -0.000116472 0
0 0 0
0 0 0
0 0 0
0.1839 -0.000872631 0
0.182609 -0.000339512 0
0.181641 0 0
0.0932812 -0.000116472 0
0.0927223 2.06924e-05 0
0.0922852 0 0
0 0 0
0 0 0
0 0 0
1.72496 -0.438544 0
1.68284 -0.462391 0
1.63927 -0.479929 0
1.6581 -0.38493 0
1.61939 -0.407745 0
1.57894 -0.425016 0
1.58089 -0.338101 0
1.54785 -0.360092 0
1.51247 -0.377428 0
1.63927 -0.479929 0
1.59547 -0.490716 0
1.5509 -0.495565 0
1.57894 -0.425016 0
1.53848 -0.436688 0
1.49726 -0.442899 0
1.51247 -0.377428 0
1.47746 -0.389872 0
1.4412 -0.397576 0
1.58089 -0.338101 0
1.54785 -0.360092 0
1.51247 -0.377428 0
1.51782 -0.300731 0
1.48838 -0.319622 0
1.45702 -0.33488 0
1.44726 -0.262249 0
1.41944 -0.279504 0
1.38986 -0.293608 0
1.51247 -0.377428 0
1.47746 -0.389872 0
1.4412 -0.397576 0
1.45702 -0.33488 0
1.42521 -0.345989 0
1.39225 -0.353251 0
1.38986 -0.293608 0
1.35992 -0.304274 0
1.32894 -0.311623 0
1.5509 -0.495565 0
1.50954 -0.494432 0
1.46824 -0.487647 0
1.49726 -0.442899 0
1.45888 -0.443931 0
1.42075 -0.440521 0
1.4412 -0.397576 0
1.4076 -0.400774 0
1.37372 -0.3997 0
1.46824 -0.487647 0
1.43162 -0.477032 0
1.39564 -0.462277 0
1.42075 -0.440521 0
1.38653 -0.433153 0
1.35322 -0.422189 0
1.37372 -0.3997 0
1.34311 -0.394858 0
1.31292 -0.386523 0
1.4412 -0.397576 0
1.4076 -0.400774 0
1.37372 -0.3997 0
1.39225 -0.353251 0
1.36075 -0.356558 0
1.32886 -0.356338 0
1.32894 -0.311623 0
1.29921 -0.315661 0
1.26926 -0.316664 0
1.37372 -0.3997 0
1.34311 -0.394858 0
1.31292 -0.386523 0
1.32886 -0.356338 0
1.29926 -0.352867 0
1.26997 -0.346431 0
1.26926 -0.316664 0
1.24129 -0.314819 0
1.21377 -0.310337 0
1.44726 -0.262249 0
1.41944 -0.279504 0
1.38986 -0.293608 0
1.36908 -0.230251 0
1.34366 -0.246048 0
1.31662 -0.259118 0
1.29609 -0.199512 0
1.27242 -0.214071 0
1.24719 -0.226279 0
1.38986 -0.293608 0
1.35992 -0.304274 0
1.32894 -0.311623 0
1.31662 -0.259118 0
1.28933 -0.269179 0
1.26107 -0.276343 0
1.24719 -0.226279 0
1.22163 -0.23583 0
1.19508 -0.242848 0
1.29609 -0.199512 0
1.27242 -0.214071 0
1.24719 -0.226279 0
1.22329 -0.170651 0
1.20086 -0.18361 0
1.17687 -0.194541 0
1.14586 -0.142831 0
1.1245 -0.15447 0
1.10162 -0.164416 0
1.24719 -0.226279 0
1.22163 -0.23583 0
1.19508 -0.242848 0
1.17687 -0.194541 0
1.15244 -0.203232 0
1.12701 -0.209773 0
1.10162 -0.164416 0
1.07832 -0.172485 0
1.05403 -0.178728 0
1.32894 -0.311623 0
1.29921 -0.315661 0
1.26926 -0.316664 0
1.26107 -0.276343 0
1.23385 -0.280576 0
1.20631 -0.282109 0
1.19508 -0.242848 0
1.16924 -0.247266 0
1.143 -0.249294 0
1.26926 -0.316664 0
1.24129 -0.314819 0
1.21377 -0.310337 0
1.20631 -0.282109 0
1.18039 -0.281086 0
1.15472 -0.27766 0
1.143 -0.249294 0
1.11803 -0.249027 0
1.09324 -0.246617 0
1.19508 -0.242848 0
1.16924 -0.247266 0
1.143 -0.249294 0
1.12701 -0.209773 0
1.1021 -0.214132 0
1.07677 -0.216429 0
1.05403 -0.178728 0
1.03013 -0.183106 0
1.00579 -0.185709 0
1.143 -0.249294 0
1.11803 -0.249027 0
1.09324 -0.246617 0
1.07677 -0.216429 0
1.05251 -0.21677 0
1.02841 -0.21523 0
1.00579 -0.185709 0
0.982327 -0.186603 0
0.958935 -0.185845 0
1.39564 -0.462277 0
1.36535 -0.445221 0
1.33639 -0.424832 0
1.35322 -0.422189 0
1.32492 -0.408363 0
1.29804 -0.392233 0
1.31292 -0.386523 0
1.28667 -0.375466 0
1.26135 -0.361883 0
1.33639 -0.424832 0
1.31242 -0.403822 0
1.29012 -0.381071 0
1.29804 -0.392233 0
1.27544 -0.374541 0
1.25446 -0.355178 0
1.26135 -0.361883 0
1.23936 -0.34646 0
1.21863 -0.329374 0
1.31292 -0.386523 0
1.28667 -0.375466 0
1.26135 -0.361883 0
1.26997 -0.346431 0
1.24387 -0.337535 0
1.21866 -0.32638 0
1.21377 -0.310337 0
1.18905 -0.303582 0
1.16533 -0.294775 0
1.26135 -0.361883 0
1.23936 -0.34646 0
1.21863 -0.329374 0
1.21866 -0.32638 0
1.1965 -0.313619 0
1.17568 -0.29932 0
1.16533 -0.294775 0
1.1442 -0.284328 0
1.12436 -0.272336 0
1.29012 -0.381071 0
1.27246 -0.358395 0
1.25688 -0.334606 0
1.25446 -0.355178 0
1.23751 -0.334973 0
1.22228 -0.313973 0
1.21863 -0.329374 0
1.20116 -0.31139 0
1.18529 -0.292584 0
1.25688 -0.334606 0
1.2446 -0.311591 0
1.23406 -0.288581 0
1.22228 -0.313973 0
1.20987 -0.292896 0
1.1992 -0.271463 0
1.18529 -0.292584 0
1.17192 -0.273613 0
1.16028 -0.254546 0
1.21863 -0.329374 0
1.20116 -0.31139 0
1.18529 -0.292584 0
1.17568 -0.29932 0
1.158 -0.284103 0
1.14194 -0.267965 0
1.12436 -0.272336 0
1.10715 -0.259255 0
1.09139 -0.245183 0
1.18529 -0.292584 0
1.17192 -0.273613 0
1.16028 -0.254546 0
1.14194 -0.267965 0
1.12822 -0.251436 0
1.11616 -0.234479 0
1.09139 -0.245183 0
1.07759 -0.230553 0
1.06533 -0.215428 0
1.21377 -0.310337 0
1.18905 -0.303582 0
1.16533 -0.294775 0
1.15472 -0.27766 0
1.1313 -0.272165 0
1.10861 -0.26478 0
1.09324 -0.246617 0
1.07033 -0.24234 0
1.0481 -0.23635 0
1.16533 -0.294775 0
1.1442 -0.284328 0
1.12436 -0.272336 0
1.10861 -0.26478 0
1.08806 -0.255893 0
1.0686 -0.245539 0
1.0481 -0.23635 0
1.02782 -0.228966 0
1.0086 -0.220239 0
1.09324 -0.246617 0
1.07033 -0.24234 0
1.0481 -0.23635 0
1.02841 -0.21523 0
1.00593 -0.21205 0
0.98408 -0.207308 0
0.958935 -0.185845 0
0.936885 -0.183618 0
0.915375 -0.179995 0
1.0481 -0.23635 0
1.02782 -0.228966 0
1.0086 -0.220239 0
0.98408 -0.207308 0
0.963937 -0.201291 0
0.944792 -0.194027 0
0.915375 -0.179995 0
0.895335 -0.175205 0
0.87622 -0.169277 0
1.12436 -0.272336 0
1.10715 -0.259255 0
1.09139 -0.245183 0
1.0686 -0.245539 0
1.05142 -0.234199 0
1.03561 -0.221946 0
1.0086 -0.220239 0
0.991456 -0.210555 0
0.975624 -0.199964 0
1.09139 -0.245183 0
1.07759 -0.230553 0
1.06533 -0.215428 0
1.03561 -0.221946 0
1.02162 -0.209172 0
1.00912 -0.19582 0
0.975624 -0.199964 0
0.961499 -0.18877 0
0.948791 -0.176981 0
1.0086 -0.220239 0
0.991456 -0.210555 0
0.975624 -0.199964 0
0.944792 -0.194027 0
0.927466 -0.185844 0
0.911391 -0.176777 0
0.87622 -0.169277 0
0.858734 -0.162482 0
0.842465 -0.154865 0
0.975624 -0.199964 0
0.961499 -0.18877 0
0.948791 -0.176981 0
0.911391 -0.176777 0
0.896892 -0.167125 0
0.883783 -0.156902 0
0.842465 -0.154865 0
0.827688 -0.146663 0
0.814295 -0.137886 0
1.14586 -0.142831 0
1.1245 -0.15447 0
1.10162 -0.164416 0
1.06808 -0.118721 0
1.04763 -0.128868 0
1.02573 -0.137589 0
0.99017 -0.0945399 0
0.970276 -0.103408 0
0.94891 -0.111085 0
1.10162 -0.164416 0
1.07832 -0.172485 0
1.05403 -0.178728 0
1.02573 -0.137589 0
1.00336 -0.144713 0
0.979989 -0.150284 0
0.94891 -0.111085 0
0.92706 -0.117424 0
0.904192 -0.122464 0
0.99017 -0.0945399 0
0.970276 -0.103408 0
0.94891 -0.111085 0
0.909294 -0.072128 0
0.890093 -0.0795821 0
0.869384 -0.0860616 0
0.822041 -0.0505763 0
0.803761 -0.0566243 0
0.783849 -0.06193 0
0.94891 -0.111085 0
0.92706 -0.117424 0
0.904192 -0.122464 0
0.869384 -0.0860616 0
0.848117 -0.0914551 0
0.825786 -0.0957919 0
0.783849 -0.06193 0
0.763313 -0.0664009 0
0.741616 -0.0700499 0
1.05403 -0.178728 0
1.03013 -0.183106 0
1.00579 -0.185709 0
0.979989 -0.150284 0
0.956844 -0.154265 0
0.9332 -0.156735 0
0.904192 -0.122464 0
0.881449 -0.126176 0
0.85818 -0.128617 0
1.00579 -0.185709 0
0.982327 -0.186603 0
0.958935 -0.185845 0
0.9332 -0.156735 0
0.910234 -0.157751 0
0.887268 -0.157361 0
0.85818 -0.128617 0
0.835471 -0.12984 0
0.812726 -0.129876 0
0.904192 -0.122464 0
0.881449 -0.126176 0
0.85818 -0.128617 0
0.825786 -0.0957919 0
0.803465 -0.09905 0
0.780562 -0.101265 0
0.741616 -0.0700499 0
0.719826 -0.0728603 0
0.697366 -0.0748518 0
0.85818 -0.128617 0
0.835471 -0.12984 0
0.812726 -0.129876 0
0.780562 -0.101265 0
0.758081 -0.102482 0
0.735496 -0.10272 0
0.697366 -0.0748518 0
0.67521 -0.076064 0
0.652874 -0.0765029 0
0.822041 -0.0505763 0
0.803761 -0.0566243 0
0.783849 -0.06193 0
0.720122 -0.0316185 0
0.703933 -0.0360543 0
0.685891 -0.0399691 0
0.574852 -0.0143418 0
0.562583 -0.0169902 0
0.548258 -0.0193617 0
0.783849 -0.06193 0
0.763313 -0.0664009 0
0.741616 -0.0700499 0
0.685891 -0.0399691 0
0.666978 -0.043294 0
0.646704 -0.0460294 0
0.548258 -0.0193617 0
0.532828 -0.0214154 0
0.51585 -0.0231328 0
0.574852 -0.0143418 0
0.562583 -0.0169902 0
0.548258 -0.0193617 0
0.344184 -0.00434858 0
0.337479 -0.00521383 0
0.329024 -0.00597567 0
0 0 0
0 0 0
0 0 0
0.548258 -0.0193617 0
0.532828 -0.0214154 0
0.51585 -0.0231328 0
0.329024 -0.00597567 0
0.319658 -0.00665289 0
0.308924 -0.0071962 0
0 0 0
0 0 0
0 0 0
0.741616 -0.0700499 0
0.719826 -0.0728603 0
0.697366 -0.0748518 0
0.646704 -0.0460294 0
0.626111 -0.0481659 0
0.604684 -0.0497081 0
0.51585 -0.0231328 0
0.498302 -0.0245194 0
0.47975 -0.0255572 0
0.697366 -0.0748518 0