# vtk DataFile Version 3.0
#This file was generated by the deal.II library on 2025/1/7 at 23:30:51
ASCII
DATASET UNSTRUCTURED_GRID

POINTS 34560 double
1.1 1.1 0
1.03125 1.09531 0
0.9625 1.09063 0
1.09375 1.03125 0
1.02539 1.02686 0
0.957031 1.02246 0
1.0875 0.9625 0
1.01953 0.958398 0
0.951563 0.954297 0
0.9625 1.09063 0
0.89375 1.08594 0
0.825 1.08125 0
0.957031 1.02246 0
0.888672 1.01807 0
0.820312 1.01367 0
0.951563 0.954297 0
0.883594 0.950195 0
0.815625 0.946094 0
1.0875 0.9625 0
1.01953 0.958398 0
0.951563 0.954297 0
1.08125 0.89375 0
1.01367 0.889941 0
0.946094 0.886133 0
1.075 0.825 0
1.00781 0.821484 0
0.940625 0.817969 0
0.951563 0.954297 0
0.883594 0.950195 0
0.815625 0.946094 0
0.946094 0.886133 0
0.878516 0.882324 0
0.810938 0.878516 0
0.940625 0.817969 0
0.873438 0.814453 0
0.80625 0.810937 0
0.825 1.08125 0
0.75625 1.07656 0
0.6875 1.07187 0
0.820312 1.01367 0
0.751953 1.00928 0
0.683594 1.00488 0
0.815625 0.946094 0
0.747656 0.941992 0
0.679688 0.937891 0
0.6875 1.07187 0
0.61875 1.06719 0
0.55 1.0625 0
0.683594 1.00488 0
0.615234 1.00049 0
0.546875 0.996094 0
0.679688 0.937891 0
0.611719 0.933789 0
0.54375 0.929688 0
0.815625 0.946094 0
0.747656 0.941992 0
0.679688 0.937891 0
0.810938 0.878516 0
0.743359 0.874707 0
0.675781 0.870898 0
0.80625 0.810937 0
0.739063 0.807422 0
0.671875 0.803906 0
0.679688 0.937891 0
0.611719 0.933789 0
0.54375 0.929688 0
0.675781 0.870898 0
0.608203 0.86709 0
0.540625 0.863281 0
0.671875 0.803906 0
0.604688 0.800391 0
0.5375 0.796875 0
1.075 0.825 0
1.00781 0.821484 0
0.940625 0.817969 0
1.06875 0.75625 0
1.00195 0.753027 0
0.935156 0.749805 0
1.0625 0.6875 0
0.996094 0.68457 0
0.929688 0.681641 0
0.940625 0.817969 0
0.873438 0.814453 0
0.80625 0.810937 0
0.935156 0.749805 0
0.868359 0.746582 0
0.801563 0.743359 0
0.929688 0.681641 0
0.863281 0.678711 0
0.796875 0.675781 0
1.0625 0.6875 0
0.996094 0.68457 0
0.929688 0.681641 0
1.05625 0.61875 0
0.990234 0.616113 0
0.924219 0.613477 0
1.05 0.55 0
0.984375 0.547656 0
0.91875 0.545313 0
0.929688 0.681641 0
0.863281 0.678711 0
0.796875 0.675781 0
0.924219 0.613477 0
0.858203 0.61084 0
0.792188 0.608203 0
0.91875 0.545313 0
0.853125 0.542969 0
0.7875 0.540625 0
0.80625 0.810937 0
0.739063 0.807422 0
0.671875 0.803906 0
0.801563 0.743359 0
0.734766 0.740137 0
0.667969 0.736914 0
0.796875 0.675781 0
0.730469 0.672852 0
0.664062 0.669922 0
0.671875 0.803906 0
0.604688 0.800391 0
0.5375 0.796875 0
0.667969 0.736914 0
0.601172 0.733691 0
0.534375 0.730469 0
0.664062 0.669922 0
0.597656 0.666992 0
0.53125 0.664062 0
0.796875 0.675781 0
0.730469 0.672852 0
0.664062 0.669922 0
0.792188 0.608203 0
0.726172 0.605566 0
0.660156 0.60293 0
0.7875 0.540625 0
0.721875 0.538281 0
0.65625 0.535937 0
0.664062 0.669922 0
0.597656 0.666992 0
0.53125 0.664062 0
0.660156 0.60293 0
0.594141 0.600293 0
0.528125 0.597656 0
0.65625 0.535937 0
0.590625 0.533594 0
0.525 0.53125 0
0.55 1.0625 0
0.48125 1.05781 0
0.4125 1.05313 0
0.546875 0.996094 0
0.478516 0.991699 0
0.410156 0.987305 0
0.54375 0.929688 0
0.475781 0.925586 0
0.407813 0.921484 0
0.4125 1.05313 0
0.34375 1.04844 0
0.275 1.04375 0
0.410156 0.987305 0
0.341797 0.98291 0
0.273438 0.978516 0
0.407813 0.921484 0
0.339844 0.917383 0
0.271875 0.913281 0
0.54375 0.929688 0
0.475781 0.925586 0
0.407813 0.921484 0
0.540625 0.863281 0
0.473047 0.859473 0
0.405469 0.855664 0
0.5375 0.796875 0
0.470313 0.793359 0
0.403125 0.789844 0
0.407813 0.921484 0
0.339844 0.917383 0
0.271875 0.913281 0
0.405469 0.855664 0
0.337891 0.851855 0
0.270313 0.848047 0
0.403125 0.789844 0
0.335938 0.786328 0
0.26875 0.782813 0
0.275 1.04375 0
0.20625 1.03906 0
0.1375 1.03437 0
0.273438 0.978516 0
0.205078 0.974121 0
0.136719 0.969727 0
0.271875 0.913281 0
0.203906 0.90918 0
0.135938 0.905078 0
0.1375 1.03437 0
0.06875 1.02969 0
0 1.025 0
0.136719 0.969727 0
0.0683594 0.965332 0
0 0.960937 0
0.135938 0.905078 0
0.0679688 0.900977 0
0 0.896875 0
0.271875 0.913281 0
0.203906 0.90918 0
0.135938 0.905078 0
0.270313 0.848047 0
0.202734 0.844238 0
0.135156 0.84043 0
0.26875 0.782813 0
0.201563 0.779297 0
0.134375 0.775781 0
0.135938 0.905078 0
0.0679688 0.900977 0
0 0.896875 0
0.135156 0.84043 0
0.0675781 0.836621 0
0 0.832812 0
0.134375 0.775781 0
0.0671875 0.772266 0
0 0.76875 0
0.5375 0.796875 0
0.470313 0.793359 0
0.403125 0.789844 0
0.534375 0.730469 0
0.467578 0.727246 0
0.400781 0.724023 0
0.53125 0.664062 0
0.464844 0.661133 0
0.398438 0.658203 0
0.403125 0.789844 0
0.335938 0.786328 0
0.26875 0.782813 0
0.400781 0.724023 0
0.333984 0.720801 0
0.267188 0.717578 0
0.398438 0.658203 0
0.332031 0.655273 0
0.265625 0.652344 0
0.53125 0.664062 0
0.464844 0.661133 0
0.398438 0.658203 0
0.528125 0.597656 0
0.462109 0.59502 0
0.396094 0.592383 0
0.525 0.53125 0
0.459375 0.528906 0
0.39375 0.526563 0
0.398438 0.658203 0
0.332031 0.655273 0
0.265625 0.652344 0
0.396094 0.592383 0
0.330078 0.589746 0
0.264062 0.587109 0
0.39375 0.526563 0
0.328125 0.524219 0
0.2625 0.521875 0
0.26875 0.782813 0
0.201563 0.779297 0
0.134375 0.775781 0
0.267188 0.717578 0
0.200391 0.714355 0
0.133594 0.711133 0
0.265625 0.652344 0
0.199219 0.649414 0
0.132812 0.646484 0
0.134375 0.775781 0
0.0671875 0.772266 0
0 0.76875 0
0.133594 0.711133 0
0.0667969 0.70791 0
0 0.704687 0
0.132812 0.646484 0
0.0664062 0.643555 0
0 0.640625 0
0.265625 0.652344 0
0.199219 0.649414 0
0.132812 0.646484 0
0.264062 0.587109 0
0.198047 0.584473 0
0.132031 0.581836 0
0.2625 0.521875 0
0.196875 0.519531 0
0.13125 0.517187 0
0.132812 0.646484 0
0.0664062 0.643555 0
0 0.640625 0
0.132031 0.581836 0
0.0660156 0.579199 0
0 0.576562 0
0.13125 0.517187 0
0.065625 0.514844 0
0 0.5125 0
1.05 0.55 0
0.984375 0.547656 0
0.91875 0.545313 0
1.04375 0.48125 0
0.978516 0.479199 0
0.913281 0.477148 0
1.0375 0.4125 0
0.972656 0.410742 0
0.907813 0.408984 0
0.91875 0.545313 0
0.853125 0.542969 0
0.7875 0.540625 0
0.913281 0.477148 0
0.848047 0.475098 0
0.782813 0.473047 0
0.907813 0.408984 0
0.842969 0.407227 0
0.778125 0.405469 0
1.0375 0.4125 0
0.972656 0.410742 0
0.907813 0.408984 0
1.03125 0.34375 0
0.966797 0.342285 0
0.902344 0.34082 0
1.025 0.275 0
0.960937 0.273828 0
0.896875 0.272656 0
0.907813 0.408984 0
0.842969 0.407227 0
0.778125 0.405469 0
0.902344 0.34082 0
0.837891 0.339355 0
0.773438 0.337891 0
0.896875 0.272656 0
0.832812 0.271484 0
0.76875 0.270313 0
0.7875 0.540625 0
0.721875 0.538281 0
0.65625 0.535937 0
0.782813 0.473047 0
0.717578 0.470996 0
0.652344 0.468945 0
0.778125 0.405469 0
0.713281 0.403711 0
0.648438 0.401953 0
0.65625 0.535937 0
0.590625 0.533594 0
0.525 0.53125 0
0.652344 0.468945 0
0.587109 0.466895 0
0.521875 0.464844 0
0.648438 0.401953 0
0.583594 0.400195 0
0.51875 0.398438 0
0.778125 0.405469 0
0.713281 0.403711 0
0.648438 0.401953 0
0.773438 0.337891 0
0.708984 0.336426 0
0.644531 0.334961 0
0.76875 0.270313 0
0.704687 0.269141 0
0.640625 0.267969 0
0.648438 0.401953 0
0.583594 0.400195 0
0.51875 0.398438 0
0.644531 0.334961 0
0.580078 0.333496 0
0.515625 0.332031 0
0.640625 0.267969 0
0.576562 0.266797 0
0.5125 0.265625 0
1.025 0.275 0
0.960937 0.273828 0
0.896875 0.272656 0
1.01875 0.20625 0
0.955078 0.205371 0
0.891406 0.204492 0
1.0125 0.1375 0
0.949219 0.136914 0
0.885937 0.136328 0
0.896875 0.272656 0
0.832812 0.271484 0
0.76875 0.270313 0
0.891406 0.204492 0
0.827734 0.203613 0
0.764062 0.202734 0
0.885937 0.136328 0
0.822656 0.135742 0
0.759375 0.135156 0
1.0125 0.1375 0
0.949219 0.136914 0
0.885937 0.136328 0
1.00625 0.06875 0
0.943359 0.068457 0
0.880469 0.0681641 0
1 0 0
0.9375 0 0
0.875 0 0
0.885937 0.136328 0
0.822656 0.135742 0
0.759375 0.135156 0
0.880469 0.0681641 0
0.817578 0.0678711 0
0.754687 0.0675781 0
0.875 0 0
0.8125 0 0
0.75 0 0
0.76875 0.270313 0
0.704687 0.269141 0
0.640625 0.267969 0
0.764062 0.202734 0
0.700391 0.201855 0
0.636719 0.200977 0
0.759375 0.135156 0
0.696094 0.13457 0
0.632812 0.133984 0
0.640625 0.267969 0
0.576562 0.266797 0
0.5125 0.265625 0
0.636719 0.200977 0
0.573047 0.200098 0
0.509375 0.199219 0
0.632812 0.133984 0
0.569531 0.133398 0
0.50625 0.132812 0
0.759375 0.135156 0
0.696094 0.13457 0
0.632812 0.133984 0
0.754687 0.0675781 0
0.691797 0.0672852 0
0.628906 0.0669922 0
0.75 0 0
0.6875 0 0
0.625 0 0
0.632812 0.133984 0
0.569531 0.133398 0
0.50625 0.132812 0
0.628906 0.0669922 0
0.566016 0.0666992 0
0.503125 0.0664062 0
0.625 0 0
0.5625 0 0
0.5 0 0
0.525 0.53125 0
0.459375 0.528906 0
0.39375 0.526563 0
0.521875 0.464844 0
0.456641 0.462793 0
0.391406 0.460742 0
0.51875 0.398438 0
0.453906 0.39668 0
0.389063 0.394922 0
0.39375 0.526563 0
0.328125 0.524219 0
0.2625 0.521875 0
0.391406 0.460742 0
0.326172 0.458691 0
0.260938 0.456641 0
0.389063 0.394922 0
0.324219 0.393164 0
0.259375 0.391406 0
0.51875 0.398438 0
0.453906 0.39668 0
0.389063 0.394922 0
0.515625 0.332031 0
0.451172 0.330566 0
0.386719 0.329102 0
0.5125 0.265625 0
0.448437 0.264453 0
0.384375 0.263281 0
0.389063 0.394922 0
0.324219 0.393164 0
0.259375 0.391406 0
0.386719 0.329102 0
0.322266 0.327637 0
0.257812 0.326172 0
0.384375 0.263281 0
0.320312 0.262109 0
0.25625 0.260937 0
0.2625 0.521875 0
0.196875 0.519531 0
0.13125 0.517187 0
0.260938 0.456641 0
0.195703 0.45459 0
0.130469 0.452539 0
0.259375 0.391406 0
0.194531 0.389648 0
0.129688 0.387891 0
0.13125 0.517187 0
0.065625 0.514844 0
0 0.5125 0
0.130469 0.452539 0
0.0652344 0.450488 0
0 0.448437 0
0.129688 0.387891 0
0.0648438 0.386133 0
0 0.384375 0
0.259375 0.391406 0
0.194531 0.389648 0
0.129688 0.387891 0
0.257812 0.326172 0
0.193359 0.324707 0
0.128906 0.323242 0
0.25625 0.260937 0
0.192187 0.259766 0
0.128125 0.258594 0
0.129688 0.387891 0
0.0648438 0.386133 0
0 0.384375 0
0.128906 0.323242 0
0.0644531 0.321777 0
0 0.320312 0
0.128125 0.258594 0
0.0640625 0.257422 0
0 0.25625 0
0.5125 0.265625 0
0.448437 0.264453 0
0.384375 0.263281 0
0.509375 0.199219 0
0.445703 0.19834 0
0.382031 0.197461 0
0.50625 0.132812 0
0.442969 0.132227 0
0.379688 0.131641 0
0.384375 0.263281 0
0.320312 0.262109 0
0.25625 0.260937 0
0.382031 0.197461 0
0.318359 0.196582 0
0.254687 0.195703 0
[...]
POINT_DATA 34560
VECTORS v double
1.28265 -0.34421 0
1.26324 -0.31744 0
1.24455 -0.291663 0
1.24719 -0.321435 0
1.22584 -0.298128 0
1.2063 -0.275012 0
1.20704 -0.299615 0
1.18506 -0.278863 0
1.1645 -0.258017 0
1.24455 -0.291663 0
1.22921 -0.266351 0
1.21472 -0.241816 0
1.2063 -0.275012 0
1.18912 -0.25211 0
1.1738 -0.229666 0
1.1645 -0.258017 0
1.14637 -0.237243 0
1.12988 -0.216588 0
1.20704 -0.299615 0
1.18506 -0.278863 0
1.1645 -0.258017 0
1.16235 -0.274423 0
1.13938 -0.256394 0
1.11788 -0.238137 0
1.11078 -0.250707 0
1.08744 -0.235111 0
1.06549 -0.21911 0
1.1645 -0.258017 0
1.14637 -0.237243 0
1.12988 -0.216588 0
1.11788 -0.238137 0
1.09869 -0.219732 0
1.08116 -0.201261 0
1.06549 -0.21911 0
1.04579 -0.202791 0
1.02771 -0.186257 0
1.21472 -0.241816 0
1.20251 -0.217898 0
1.1912 -0.194618 0
1.1738 -0.229666 0
1.15999 -0.207495 0
1.14799 -0.185834 0
1.12988 -0.216588 0
1.11506 -0.196103 0
1.10199 -0.175878 0
1.1912 -0.194618 0
1.18121 -0.172066 0
1.17208 -0.150097 0
1.14799 -0.185834 0
1.13667 -0.164524 0
1.12699 -0.143819 0
1.10199 -0.175878 0
1.0897 -0.15595 0
1.07911 -0.136417 0
1.12988 -0.216588 0
1.11506 -0.196103 0
1.10199 -0.175878 0
1.08116 -0.201261 0
1.06539 -0.182735 0
1.05134 -0.16434 0
1.02771 -0.186257 0
1.01137 -0.169538 0
0.996754 -0.152793 0
1.10199 -0.175878 0
1.0897 -0.15595 0
1.07911 -0.136417 0
1.05134 -0.16434 0
1.03831 -0.146043 0
1.02693 -0.127966 0
0.996754 -0.152793 0
0.983228 -0.136006 0
0.971383 -0.119324 0
1.11078 -0.250707 0
1.08744 -0.235111 0
1.06549 -0.21911 0
1.05396 -0.226598 0
1.03061 -0.213217 0
1.00856 -0.199304 0
0.993271 -0.203589 0
0.970029 -0.192088 0
0.947942 -0.180012 0
1.06549 -0.21911 0
1.04579 -0.202791 0
1.02771 -0.186257 0
1.00856 -0.199304 0
0.988584 -0.184969 0
0.970144 -0.170326 0
0.947942 -0.180012 0
0.927776 -0.167482 0
0.909048 -0.154588 0
0.993271 -0.203589 0
0.970029 -0.192088 0
0.947942 -0.180012 0
0.92833 -0.179383 0
0.905165 -0.16971 0
0.883118 -0.159471 0
0.858824 -0.156512 0
0.836018 -0.148461 0
0.814241 -0.139856 0
0.947942 -0.180012 0
0.927776 -0.167482 0
0.909048 -0.154588 0
0.883118 -0.159471 0
0.862839 -0.148764 0
0.843957 -0.13767 0
0.814241 -0.139856 0
0.794077 -0.13078 0
0.77523 -0.121317 0
1.02771 -0.186257 0
1.01137 -0.169538 0
0.996754 -0.152793 0
0.970144 -0.170326 0
0.953397 -0.155403 0
0.938313 -0.140349 0
0.909048 -0.154588 0
0.891973 -0.141362 0
0.87651 -0.127933 0
0.996754 -0.152793 0
0.983228 -0.136006 0
0.971383 -0.119324 0
0.938313 -0.140349 0
0.92441 -0.125158 0
0.912171 -0.109962 0
0.87651 -0.127933 0
0.862301 -0.114291 0
0.849745 -0.100556 0
0.909048 -0.154588 0
0.891973 -0.141362 0
0.87651 -0.127933 0
0.843957 -0.13767 0
0.82665 -0.126206 0
0.810932 -0.11449 0
0.77523 -0.121317 0
0.757855 -0.111477 0
0.742011 -0.101369 0
0.87651 -0.127933 0
0.862301 -0.114291 0
0.849745 -0.100556 0
0.810932 -0.11449 0
0.796493 -0.102494 0
0.783718 -0.0903371 0
0.742011 -0.101369 0
0.727444 -0.090953 0
0.71453 -0.0803316 0
1.17208 -0.150097 0
1.16391 -0.128918 0
1.15655 -0.108318 0
1.12699 -0.143819 0
1.11778 -0.123608 0
1.11004 -0.103994 0
1.07911 -0.136417 0
1.06911 -0.117298 0
1.06069 -0.0986876 0
1.15655 -0.108318 0
1.14972 -0.0885488 0
1.14362 -0.0693842 0
1.11004 -0.103994 0
1.10241 -0.0849833 0
1.09604 -0.0666593 0
1.06069 -0.0986876 0
1.05244 -0.0806458 0
1.04561 -0.0632047 0
1.07911 -0.136417 0
1.06911 -0.117298 0
1.06069 -0.0986876 0
1.02693 -0.127966 0
1.01639 -0.110163 0
1.0074 -0.0927828 0
0.971383 -0.119324 0
0.960446 -0.102818 0
0.951078 -0.0866256 0
1.06069 -0.0986876 0
1.05244 -0.0806458 0
1.04561 -0.0632047 0
1.0074 -0.0927828 0
0.998827 -0.0758768 0
0.991648 -0.0594574 0
0.951078 -0.0866256 0
0.942246 -0.0708253 0
0.934832 -0.0554622 0
1.14362 -0.0693842 0
1.13807 -0.0510504 0
1.13321 -0.0333111 0
1.09604 -0.0666593 0
1.09 -0.0490387 0
1.08507 -0.0320305 0
1.04561 -0.0632047 0
1.03918 -0.0464169 0
1.03404 -0.030268 0
1.13321 -0.0333111 0
1.12877 -0.0163594 0
1.125 0 0
1.08507 -0.0320305 0
1.08037 -0.015705 0
1.07666 0 0
1.03404 -0.030268 0
1.02913 -0.0148187 0
1.02539 0 0
1.04561 -0.0632047 0
1.03918 -0.0464169 0
1.03404 -0.030268 0
0.991648 -0.0594574 0
0.985065 -0.043643 0
0.979761 -0.0284614 0
0.934832 -0.0554622 0
0.928093 -0.0406821 0
0.922639 -0.0264932 0
1.03404 -0.030268 0
1.02913 -0.0148187 0
1.02539 0 0
0.979761 -0.0284614 0
0.9749 -0.0139561 0
0.971191 0 0
0.922639 -0.0264932 0
0.917761 -0.0129645 0
0.914062 0 0
0.971383 -0.119324 0
0.960446 -0.102818 0
0.951078 -0.0866256 0
0.912171 -0.109962 0
0.900925 -0.0948347 0
0.891248 -0.0799223 0
0.849745 -0.100556 0
0.838266 -0.0868062 0
0.828365 -0.073184 0
0.951078 -0.0866256 0
0.942246 -0.0708253 0
0.934832 -0.0554622 0
0.891248 -0.0799223 0
0.882243 -0.0653329 0
0.874672 -0.0511189 0
0.828365 -0.073184 0
0.819257 -0.0598164 0
0.81159 -0.0467649 0
0.849745 -0.100556 0
0.838266 -0.0868062 0
0.828365 -0.073184 0
0.783718 -0.0903371 0
0.77208 -0.07807 0
0.762048 -0.0658401 0
0.71453 -0.0803316 0
0.702793 -0.0695318 0
0.692684 -0.0586936 0
0.828365 -0.073184 0
0.819257 -0.0598164 0
0.81159 -0.0467649 0
0.762048 -0.0658401 0
0.752898 -0.0537752 0
0.74522 -0.0419652 0
0.692684 -0.0586936 0
0.683549 -0.0479436 0
0.675914 -0.037384 0
0.934832 -0.0554622 0
0.928093 -0.0406821 0
0.922639 -0.0264932 0
0.874672 -0.0511189 0
0.867862 -0.0374427 0
0.862359 -0.0243278 0
0.81159 -0.0467649 0
0.804753 -0.0342197 0
0.799224 -0.0222062 0
0.922639 -0.0264932 0
0.917761 -0.0129645 0
0.914062 0 0
0.862359 -0.0243278 0
0.85758 -0.0118745 0
0.854004 0 0
0.799224 -0.0222062 0
0.794515 -0.0108359 0
0.791016 0 0
0.81159 -0.0467649 0
0.804753 -0.0342197 0
0.799224 -0.0222062 0
0.74522 -0.0419652 0
0.738425 -0.0306157 0
0.732957 -0.0197739 0
0.675914 -0.037384 0
0.669202 -0.0272424 0
0.66382 -0.0175734 0
0.799224 -0.0222062 0
0.794515 -0.0108359 0
0.791016 0 0
0.732957 -0.0197739 0
0.728413 -0.00958617 0
0.725098 0 0
0.66382 -0.0175734 0
0.659422 -0.00853195 0
0.65625 0 0
0.858824 -0.156512 0
0.836018 -0.148461 0
0.814241 -0.139856 0
0.785816 -0.133267 0
0.763341 -0.126651 0
0.741837 -0.119524 0
0.709012 -0.110953 0
0.686948 -0.10567 0
0.665793 -0.0999376 0
0.814241 -0.139856 0
0.794077 -0.13078 0
0.77523 -0.121317 0
0.741837 -0.119524 0
0.721793 -0.111966 0
0.703014 -0.104053 0
0.665793 -0.0999376 0
0.64597 -0.0938098 0
0.627358 -0.0873663 0
0.709012 -0.110953 0
0.686948 -0.10567 0
0.665793 -0.0999376 0
0.628712 -0.0882076 0
0.607067 -0.0841247 0
0.586295 -0.0796716 0
0.543596 -0.0664112 0
0.522622 -0.0634585 0
0.502459 -0.0602215 0
0.665793 -0.0999376 0
0.64597 -0.0938098 0
0.627358 -0.0873663 0
0.586295 -0.0796716 0
0.56672 -0.0748846 0
0.548322 -0.0698362 0
0.502459 -0.0602215 0
0.483356 -0.0567117 0
0.465377 -0.0530012 0
0.77523 -0.121317 0
0.757855 -0.111477 0
0.742011 -0.101369 0
0.703014 -0.104053 0
0.685608 -0.095794 0
0.669688 -0.0872799 0
0.627358 -0.0873663 0
0.610025 -0.0806052 0
0.594128 -0.0736166 0
0.742011 -0.101369 0
0.727444 -0.090953 0
0.71453 -0.0803316 0
0.669688 -0.0872799 0
0.655017 -0.0784656 0
0.641988 -0.0694363 0
0.594128 -0.0736166 0
0.57944 -0.0663507 0
0.566364 -0.0588812 0
0.627358 -0.0873663 0
0.610025 -0.0806052 0
0.594128 -0.0736166 0
0.548322 -0.0698362 0
0.531108 -0.0645156 0
0.5153 -0.0590061 0
0.465377 -0.0530012 0
0.448474 -0.0490625 0
0.432924 -0.0449797 0
0.594128 -0.0736166 0
0.57944 -0.0663507 0
0.566364 -0.0588812 0
0.5153 -0.0590061 0
0.50064 -0.0532564 0
0.487565 -0.047337 0
0.432924 -0.0449797 0
0.418452 -0.0406972 0
0.405514 -0.0362855 0
0.543596 -0.0664112 0
0.522622 -0.0634585 0
0.502459 -0.0602215 0
0.45291 -0.0447749 0
0.432815 -0.042763 0
0.413507 -0.0405682 0
0.347578 -0.0243234 0
0.329513 -0.0232615 0
0.312162 -0.0221077 0
0.502459 -0.0602215 0
0.483356 -0.0567117 0
0.465377 -0.0530012 0
0.413507 -0.0405682 0
0.395109 -0.038183 0
0.3778 -0.0356731 0
0.312162 -0.0221077 0
0.295582 -0.0208345 0
0.28 -0.0195049 0
0.347578 -0.0243234 0
0.329513 -0.0232615 0
0.312162 -0.0221077 0
0.206767 -0.00759495 0
0.193814 -0.00721364 0
0.181559 -0.00683156 0
0 0 0
0 0 0
0 0 0
0.312162 -0.0221077 0
0.295582 -0.0208345 0
0.28 -0.0195049 0
0.181559 -0.00683156 0
0.169768 -0.00639217 0
0.158882 -0.00596449 0
0 0 0
0 0 0
0 0 0
0.465377 -0.0530012 0
0.448474 -0.0490625 0
0.432924 -0.0449797 0
0.3778 -0.0356731 0
0.361436 -0.0329988 0
0.346387 -0.0302408 0
0.28 -0.0195049 0
0.265228 -0.0180685 0
0.251658 -0.0166023 0
0.432924 -0.0449797 0
0.418452 -0.0406972 0
0.405514 -0.0362855 0
0.346387 -0.0302408 0
0.332318 -0.027338 0
0.319735 -0.0243569 0
0.251658 -0.0166023 0
0.238948 -0.0150467 0
0.227587 -0.0134596 0
0.28 -0.0195049 0
0.265228 -0.0180685 0
0.251658 -0.0166023 0
0.158882 -0.00596449 0
0.148485 -0.00547683 0
0.13912 -0.00500647 0
0 0 0
0 0 0
0 0 0
0.251658 -0.0166023 0
0.238948 -0.0150467 0
0.227587 -0.0134596 0
0.13912 -0.00500647 0
0.130291 -0.00449055 0
0.122559 -0.00398526 0
0 0 0
0 0 0
0 0 0
0.71453 -0.0803316 0
0.702793 -0.0695318 0
0.692684 -0.0586936 0
0.641988 -0.0694363 0
0.630168 -0.060189 0
0.62001 -0.05084 0
0.566364 -0.0588812 0
0.554504 -0.0511774 0
0.544324 -0.0433331 0
0.692684 -0.0586936 0
0.683549 -0.0479436 0
0.675914 -0.037384 0
0.62001 -0.05084 0
0.610914 -0.0414902 0
0.603365 -0.0322558 0
0.544324 -0.0433331 0
0.535288 -0.0354119 0
0.527858 -0.0275325 0
0.566364 -0.0588812 0
0.554504 -0.0511774 0
0.544324 -0.0433331 0
0.487565 -0.047337 0
0.475684 -0.0412082 0
0.465486 -0.0349355 0
0.405514 -0.0362855 0
0.393728 -0.0317026 0
0.383594 -0.0269969 0
0.544324 -0.0433331 0
0.535288 -0.0354119 0
0.527858 -0.0275325 0
0.465486 -0.0349355 0
0.456499 -0.0285401 0
0.44918 -0.0221172 0
0.383594 -0.0269969 0
0.3747 -0.0221507 0
0.367518 -0.0172341 0
0.675914 -0.037384 0
0.669202 -0.0272424 0
0.66382 -0.0175734 0
0.603365 -0.0322558 0
0.596788 -0.0233761 0
0.591564 -0.0149384 0
0.527858 -0.0275325 0
0.521452 -0.019935 0
0.51642 -0.0127232 0
0.66382 -0.0175734 0
0.659422 -0.00853195 0
0.65625 0 0
0.591564 -0.0149384 0
0.587397 -0.0071493 0
0.584473 0 0
0.51642 -0.0127232 0
0.512481 -0.00611969 0
0.509766 0 0
0.527858 -0.0275325 0
0.521452 -0.019935 0
0.51642 -0.0127232 0
0.44918 -0.0221172 0
0.442966 -0.0158774 0
0.438175 -0.00995564 0
0.367518 -0.0172341 0
0.361525 -0.0124001 0
0.357012 -0.00777803 0
0.51642 -0.0127232 0
0.512481 -0.00611969 0
0.509766 0 0
0.438175 -0.00995564 0
0.434533 -0.00463576 0
0.432129 0 0
0.357012 -0.00777803 0
0.353684 -0.00367431 0
0.351562 0 0
0.405514 -0.0362855 0
0.393728 -0.0317026 0
0.383594 -0.0269969 0
0.319735 -0.0243569 0
0.308234 -0.0212609 0
0.298338 -0.0180897 0
0.227587 -0.0134596 0
0.217197 -0.0118065 0
0.208257 -0.0101245 0
0.383594 -0.0269969 0
0.3747 -0.0221507 0
0.367518 -0.0172341 0
0.298338 -0.0180897 0
0.289648 -0.0148128 0
0.282657 -0.0114723 0
0.208257 -0.0101245 0
0.200399 -0.00838418 0
0.194086 -0.00660941 0
0.227587 -0.0134596 0
0.217197 -0.0118065 0
0.208257 -0.0101245 0
0.122559 -0.00398526 0
0.115443 -0.00344998 0
0.109467 -0.00292067 0
0 0 0
0 0 0
0 0 0
0.208257 -0.0101245 0
0.200399 -0.00838418 0
0.194086 -0.00660941 0
0.109467 -0.00292067 0
0.104168 -0.00236682 0
0.099995 -0.00181591 0
0 0 0
0 0 0
0 0 0
0.367518 -0.0172341 0
0.361525 -0.0124001 0
0.357012 -0.00777803 0
0.282657 -0.0114723 0
0.27693 -0.00815488 0
0.272748 -0.00494089 0
0.194086 -0.00660941 0
0.188997 -0.00481801 0
0.185391 -0.00302643 0
0.357012 -0.00777803 0
0.353684 -0.00367431 0
0.351562 0 0
0.272748 -0.00494089 0
0.2698 -0.00212427 0
0.268066 0 0
0.185391 -0.00302643 0
0.182965 -0.00142306 0
0.181641 0 0
0.194086 -0.00660941 0
0.188997 -0.00481801 0
0.185391 -0.00302643 0
0.099995 -0.00181591 0
0.0966365 -0.00127401 0
0.0943932 -0.000718921 0
0 0 0
0 0 0
0 0 0
0.185391 -0.00302643 0
0.182965 -0.00142306 0
0.181641 0 0
0.0943932 -0.000718921 0
0.092931 -0.000207582 0
0.0922852 0 0
0 0 0
0 0 0
0 0 0
1.82364 -0.320739 0
1.78751 -0.360189 0
1.74529 -0.394646 0
1.74201 -0.26939 0
1.70801 -0.306972 0
1.67103 -0.339167 0
1.65149 -0.228566 0
1.62486 -0.26359 0
1.59383 -0.294149 0
1.74529 -0.394646 0
1.70287 -0.420355 0
1.65608 -0.44064 0
1.67103 -0.339167 0
1.63183 -0.365064 0
1.59065 -0.385227 0
1.59383 -0.294149 0
1.56171 -0.319535 0
1.52647 -0.339903 0
1.65149 -0.228566 0
1.62486 -0.26359 0
1.59383 -0.294149 0
1.58172 -0.1985 0
1.55834 -0.228525 0
1.53169 -0.255188 0
1.4986 -0.165838 0
1.47747 -0.193027 0
1.45334 -0.217282 0
1.59383 -0.294149 0
1.56171 -0.319535 0
1.52647 -0.339903 0
1.53169 -0.255188 0
1.50296 -0.277546 0
1.47172 -0.295984 0
1.45334 -0.217282 0
1.42739 -0.23808 0
1.39915 -0.255504 0
1.65608 -0.44064 0
1.61309 -0.452859 0
1.56748 -0.459411 0
1.59065 -0.385227 0
1.55123 -0.399168 0
1.511 -0.408243 0
1.52647 -0.339903 0
1.49324 -0.35514 0
1.45814 -0.365586 0
1.56748 -0.459411 0
1.52743 -0.460302 0
1.48595 -0.456965 0
1.511 -0.408243 0
1.47401 -0.412223 0
1.43701 -0.412192 0
1.45814 -0.365586 0
1.42589 -0.371557 0
1.39269 -0.373472 0
1.52647 -0.339903 0
1.49324 -0.35514 0
1.45814 -0.365586 0
1.47172 -0.295984 0
1.44105 -0.310031 0
1.40873 -0.320302 0
1.39915 -0.255504 0
1.37128 -0.269349 0
1.34199 -0.279947 0
1.45814 -0.365586 0
1.42589 -0.371557 0
1.39269 -0.373472 0
1.40873 -0.320302 0
1.37803 -0.326772 0
1.34647 -0.3299 0
1.34199 -0.279947 0
1.31389 -0.287284 0
1.28509 -0.291665 0
1.4986 -0.165838 0
1.47747 -0.193027 0
1.45334 -0.217282 0
1.41242 -0.142292 0
1.39414 -0.166548 0
1.37299 -0.188386 0
1.33369 -0.118756 0
1.31708 -0.140634 0
1.29782 -0.160482 0
1.45334 -0.217282 0
1.42739 -0.23808 0
1.39915 -0.255504 0
1.37299 -0.188386 0
1.35031 -0.207248 0
1.32535 -0.223256 0
1.29782 -0.160482 0
1.27704 -0.177758 0
1.25412 -0.192597 0
1.33369 -0.118756 0
1.31708 -0.140634 0
1.29782 -0.160482 0
1.25282 -0.0982829 0
1.23792 -0.117453 0
1.2204 -0.134913 0
1.16855 -0.0785885 0
1.15501 -0.0954317 0
1.13893 -0.110901 0
1.29782 -0.160482 0
1.27704 -0.177758 0
1.25412 -0.192597 0
1.2204 -0.134913 0
1.20135 -0.150235 0
1.18016 -0.163534 0
1.13893 -0.110901 0
1.1214 -0.12461 0
1.10179 -0.136638 0
1.39915 -0.255504 0
1.37128 -0.269349 0
1.34199 -0.279947 0
1.32535 -0.223256 0
1.30062 -0.236153 0
1.27433 -0.246254 0
1.25412 -0.192597 0
1.23112 -0.204732 0
1.20661 -0.214442 0
1.34199 -0.279947 0
1.31389 -0.287284 0
1.28509 -0.291665 0
1.27433 -0.246254 0
1.2489 -0.253501 0
1.22254 -0.258112 0
1.20661 -0.214442 0
1.18262 -0.221627 0
1.15771 -0.226501 0
1.25412 -0.192597 0
1.23112 -0.204732 0
1.20661 -0.214442 0
1.18016 -0.163534 0
1.15874 -0.17459 0
1.13577 -0.183595 0
1.10179 -0.136638 0
1.08183 -0.146777 0
1.06033 -0.155186 0
1.20661 -0.214442 0
1.18262 -0.221627 0
1.15771 -0.226501 0
1.13577 -0.183595 0
1.11314 -0.19048 0
1.08954 -0.195376 0
1.06033 -0.155186 0
1.039 -0.161772 0
1.01665 -0.166639 0
1.48595 -0.456965 0
1.45146 -0.449878 0
1.4167 -0.439032 0
1.43701 -0.412192 0
1.4051 -0.408186 0
1.37392 -0.401493 0
1.39269 -0.373472 0
1.36372 -0.371965 0
1.33463 -0.367341 0
1.4167 -0.439032 0
1.38803 -0.426505 0
1.35972 -0.411827 0
1.37392 -0.401493 0
1.347 -0.392266 0
1.32114 -0.380986 0
1.33463 -0.367341 0
1.30893 -0.360192 0
1.28359 -0.350787 0
1.39269 -0.373472 0
1.36372 -0.371965 0
1.33463 -0.367341 0
1.34647 -0.3299 0
1.31811 -0.32995 0
1.28963 -0.327329 0
1.28509 -0.291665 0
1.2589 -0.293293 0
1.23273 -0.292527 0
1.33463 -0.367341 0
1.30893 -0.360192 0
1.28359 -0.350787 0
1.28963 -0.327329 0
1.2641 -0.322501 0
1.23904 -0.315631 0
1.23273 -0.292527 0
1.20888 -0.289613 0
1.18547 -0.284734 0
1.35972 -0.411827 0
1.33725 -0.396373 0
1.31595 -0.379068 0
1.32114 -0.380986 0
1.2998 -0.367902 0
1.27979 -0.35347 0
1.28359 -0.350787 0
1.26207 -0.339745 0
1.24154 -0.327201 0
1.31595 -0.379068 0
1.29885 -0.361936 0
1.28265 -0.34421 0
1.27979 -0.35347 0
1.26276 -0.337965 0
1.24719 -0.321435 0
1.24154 -0.327201 0
1.22363 -0.313755 0
1.20704 -0.299615 0
1.28359 -0.350787 0
1.26207 -0.339745 0
1.24154 -0.327201 0
1.23904 -0.315631 0
1.21759 -0.307211 0
1.19711 -0.297347 0
1.18547 -0.284734 0
1.16496 -0.27821 0
1.14528 -0.270219 0
1.24154 -0.327201 0
1.22363 -0.313755 0
1.20704 -0.299615 0
1.19711 -0.297347 0
1.17914 -0.286443 0
1.16235 -0.274423 0
1.14528 -0.270219 0
1.1275 -0.261015 0
1.11078 -0.250707 0
1.28509 -0.291665 0
1.2589 -0.293293 0
1.23273 -0.292527 0
1.22254 -0.258112 0
1.19823 -0.260271 0
1.17359 -0.26027 0
1.15771 -0.226501 0
1.13437 -0.229193 0
1.1107 -0.229963 0
1.23273 -0.292527 0
1.20888 -0.289613 0
1.18547 -0.284734 0
1.17359 -0.26027 0
1.15081 -0.258352 0
1.12819 -0.254598 0
1.1107 -0.229963 0
1.08862 -0.228983 0
1.06668 -0.226361 0
1.15771 -0.226501 0
1.13437 -0.229193 0
1.1107 -0.229963 0
1.08954 -0.195376 0
1.06722 -0.198394 0
1.0445 -0.199694 0
1.01665 -0.166639 0
0.995265 -0.169853 0
0.973389 -0.171563 0
1.1107 -0.229963 0
1.08862 -0.228983 0
1.06668 -0.226361 0
1.0445 -0.199694 0
1.02308 -0.19944 0
1.0017 -0.197696 0
0.973389 -0.171563 0
0.952571 -0.171883 0
0.931708 -0.17087 0
1.18547 -0.284734 0
1.16496 -0.27821 0
1.14528 -0.270219 0
1.12819 -0.254598 0
1.10803 -0.24938 0
1.0885 -0.242851 0
1.06668 -0.226361 0
1.04689 -0.222389 0
1.02766 -0.217181 0
1.14528 -0.270219 0
1.1275 -0.261015 0
1.11078 -0.250707 0
1.0885 -0.242851 0
1.07076 -0.23528 0
1.05396 -0.226598 0
1.02766 -0.217181 0
1.01005 -0.210915 0
0.993271 -0.203589 0
1.06668 -0.226361 0
1.04689 -0.222389 0
1.02766 -0.217181 0
1.0017 -0.197696 0
0.982125 -0.19471 0
0.963005 -0.190561 0
0.931708 -0.17087 0
0.912382 -0.168729 0
0.893447 -0.165547 0
1.02766 -0.217181 0
1.01005 -0.210915 0
0.993271 -0.203589 0
0.963005 -0.190561 0
0.945289 -0.18545 0
0.92833 -0.179383 0
0.893447 -0.165547 0
0.875783 -0.161477 0
0.858824 -0.156512 0
1.16855 -0.0785885 0
1.15501 -0.0954317 0
1.13893 -0.110901 0
1.08444 -0.0631462 0
1.07209 -0.077537 0
1.05731 -0.0908077 0
0.999404 -0.0473771 0
0.987883 -0.0596107 0
0.973976 -0.0709463 0
1.13893 -0.110901 0
1.1214 -0.12461 0
1.10179 -0.136638 0
1.05731 -0.0908077 0
1.04107 -0.102624 0
1.02279 -0.113042 0
0.973976 -0.0709463 0
0.958676 -0.0810945 0
0.941354 -0.090101 0
0.999404 -0.0473771 0
0.987883 -0.0596107 0
0.973976 -0.0709463 0
0.911133 -0.0342767 0
0.90049 -0.0442733 0
0.887511 -0.0535574 0
0.817461 -0.0215555 0
0.807737 -0.0294297 0
0.795616 -0.0367817 0
0.973976 -0.0709463 0
0.958676 -0.0810945 0
0.941354 -0.090101 0
0.887511 -0.0535574 0
0.873151 -0.0618957 0
0.856781 -0.069324 0
0.795616 -0.0367817 0
0.782148 -0.0434198 0
0.766637 -0.0493629 0
1.10179 -0.136638 0
1.08183 -0.146777 0
1.06033 -0.155186 0
1.02279 -0.113042 0
1.004 -0.121887 0
0.983647 -0.129287 0
0.941354 -0.090101 0
0.923444 -0.097819 0
0.903965 -0.104349 0
1.06033 -0.155186 0
1.039 -0.161772 0
1.01665 -0.166639 0
0.983647 -0.129287 0
0.963284 -0.135163 0
0.941846 -0.139592 0
0.903965 -0.104349 0
0.88437 -0.109622 0
0.863676 -0.113691 0
0.941354 -0.090101 0
0.923444 -0.097819 0
0.903965 -0.104349 0
0.856781 -0.069324 0
0.839747 -0.0757247 0
0.821121 -0.0811706 0
0.766637 -0.0493629 0
0.750414 -0.0545209 0
0.732565 -0.0589425 0
0.903965 -0.104349 0
0.88437 -0.109622 0
0.863676 -0.113691 0
0.821121 -0.0811706 0
0.802278 -0.0856089 0
0.782285 -0.0890704 0
0.732565 -0.0589425 0
0.714441 -0.0625916 0
0.695133 -0.0654769 0
0.817461 -0.0215555 0
0.807737 -0.0294297 0
0.795616 -0.0367817 0
0.710277 -0.0116244 0
0.70257 -0.0172581 0
0.692307 -0.0225446 0
0.567515 -0.00325146 0
0.563172 -0.00653687 0
0.556137 -0.00965832 0
0.795616 -0.0367817 0
0.782148 -0.0434198 0
0.766637 -0.0493629 0
0.692307 -0.0225446 0
0.680554 -0.0273417 0
0.666604 -0.0316521 0
0.556137 -0.00965832 0
0.547485 -0.0125263 0
0.536521 -0.0151299 0
0.567515 -0.00325146 0
0.563172 -0.00653687 0
0.556137 -0.00965832 0
0.349231 -0.000783623 0
0.34867 -0.00185881 0
0.345812 -0.00287898 0
0 0 0
0 0 0
0 0 0
0.556137 -0.00965832 0
0.547485 -0.0125263 0
0.536521 -0.0151299 0
0.345812 -0.00287898 0
0.341758 -0.00382274 0
0.335616 -0.00466833 0
0 0 0
0 0 0
0 0 0
0.766637 -0.0493629 0
0.750414 -0.0545209 0
0.732565 -0.0589425 0
0.666604 -0.0316521 0
0.651791 -0.0354128 0
0.63522 -0.0386497 0
0.536521 -0.0151299 0
0.524503 -0.0174373 0
0.510621 -0.0194458 0
0.732565 -0.0589425 0
0.714441 -0.0625916 0
0.695133 -0.0654769 0
0.63522 -0.0386497 0
0.618255 -0.0413439 0
0.599998 -0.0434828 0