# vtk DataFile Version 3.0
#This file was generated by the deal.II library on 2025/1/7 at 20:14:47
ASCII
DATASET UNSTRUCTURED_GRID

POINTS 34560 double
1.1 1.1 0
1.03125 1.09531 0
0.9625 1.09063 0
1.09375 1.03125 0
1.02539 1.02686 0
0.957031 1.02246 0
1.0875 0.9625 0
1.01953 0.958398 0
0.951563 0.954297 0
0.9625 1.09063 0
0.89375 1.08594 0
0.825 1.08125 0
0.957031 1.02246 0
0.888672 1.01807 0
0.820312 1.01367 0
0.951563 0.954297 0
0.883594 0.950195 0
0.815625 0.946094 0
1.0875 0.9625 0
1.01953 0.958398 0
0.951563 0.954297 0
1.08125 0.89375 0
1.01367 0.889941 0
0.946094 0.886133 0
1.075 0.825 0
1.00781 0.821484 0
0.940625 0.817969 0
0.951563 0.954297 0
0.883594 0.950195 0
0.815625 0.946094 0
0.946094 0.886133 0
0.878516 0.882324 0
0.810938 0.878516 0
0.940625 0.817969 0
0.873438 0.814453 0
0.80625 0.810937 0
0.825 1.08125 0
0.75625 1.07656 0
0.6875 1.07187 0
0.820312 1.01367 0
0.751953 1.00928 0
0.683594 1.00488 0
0.815625 0.946094 0
0.747656 0.941992 0
0.679688 0.937891 0
0.6875 1.07187 0
0.61875 1.06719 0
0.55 1.0625 0
0.683594 1.00488 0
0.615234 1.00049 0
0.546875 0.996094 0
0.679688 0.937891 0
0.611719 0.933789 0
0.54375 0.929688 0
0.815625 0.946094 0
0.747656 0.941992 0
0.679688 0.937891 0
0.810938 0.878516 0
0.743359 0.874707 0
0.675781 0.870898 0
0.80625 0.810937 0
0.739063 0.807422 0
0.671875 0.803906 0
0.679688 0.937891 0
0.611719 0.933789 0
0.54375 0.929688 0
0.675781 0.870898 0
0.608203 0.86709 0
0.540625 0.863281 0
0.671875 0.803906 0
0.604688 0.800391 0
0.5375 0.796875 0
1.075 0.825 0
1.00781 0.821484 0
0.940625 0.817969 0
1.06875 0.75625 0
1.00195 0.753027 0
0.935156 0.749805 0
1.0625 0.6875 0
0.996094 0.68457 0
0.929688 0.681641 0
0.940625 0.817969 0
0.873438 0.814453 0
0.80625 0.810937 0
0.935156 0.749805 0
0.868359 0.746582 0
0.801563 0.743359 0
0.929688 0.681641 0
0.863281 0.678711 0
0.796875 0.675781 0
1.0625 0.6875 0
0.996094 0.68457 0
0.929688 0.681641 0
1.05625 0.61875 0
0.990234 0.616113 0
0.924219 0.613477 0
1.05 0.55 0
0.984375 0.547656 0
0.91875 0.545313 0
0.929688 0.681641 0
0.863281 0.678711 0
0.796875 0.675781 0
0.924219 0.613477 0
0.858203 0.61084 0
0.792188 0.608203 0
0.91875 0.545313 0
0.853125 0.542969 0
0.7875 0.540625 0
0.80625 0.810937 0
0.739063 0.807422 0
0.671875 0.803906 0
0.801563 0.743359 0
0.734766 0.740137 0
0.667969 0.736914 0
0.796875 0.675781 0
0.730469 0.672852 0
0.664062 0.669922 0
0.671875 0.803906 0
0.604688 0.800391 0
0.5375 0.796875 0
0.667969 0.736914 0
0.601172 0.733691 0
0.534375 0.730469 0
0.664062 0.669922 0
0.597656 0.666992 0
0.53125 0.664062 0
0.796875 0.675781 0
0.730469 0.672852 0
0.664062 0.669922 0
0.792188 0.608203 0
0.726172 0.605566 0
0.660156 0.60293 0
0.7875 0.540625 0
0.721875 0.538281 0
0.65625 0.535937 0
0.664062 0.669922 0
0.597656 0.666992 0
0.53125 0.664062 0
0.660156 0.60293 0
0.594141 0.600293 0
0.528125 0.597656 0
0.65625 0.535937 0
0.590625 0.533594 0
0.525 0.53125 0
0.55 1.0625 0
0.48125 1.05781 0
0.4125 1.05313 0
0.546875 0.996094 0
0.478516 0.991699 0
0.410156 0.987305 0
0.54375 0.929688 0
0.475781 0.925586 0
0.407813 0.921484 0
0.4125 1.05313 0
0.34375 1.04844 0
0.275 1.04375 0
0.410156 0.987305 0
0.341797 0.98291 0
0.273438 0.978516 0
0.407813 0.921484 0
0.339844 0.917383 0
0.271875 0.913281 0
0.54375 0.929688 0
0.475781 0.925586 0
0.407813 0.921484 0
0.540625 0.863281 0
0.473047 0.859473 0
0.405469 0.855664 0
0.5375 0.796875 0
0.470313 0.793359 0
0.403125 0.789844 0
0.407813 0.921484 0
0.339844 0.917383 0
0.271875 0.913281 0
0.405469 0.855664 0
0.337891 0.851855 0
0.270313 0.848047 0
0.403125 0.789844 0
0.335938 0.786328 0
0.26875 0.782813 0
0.275 1.04375 0
0.20625 1.03906 0
0.1375 1.03437 0
0.273438 0.978516 0
0.205078 0.974121 0
0.136719 0.969727 0
0.271875 0.913281 0
0.203906 0.90918 0
0.135938 0.905078 0
0.1375 1.03437 0
0.06875 1.02969 0
0 1.025 0
0.136719 0.969727 0
0.0683594 0.965332 0
0 0.960937 0
0.135938 0.905078 0
0.0679688 0.900977 0
0 0.896875 0
0.271875 0.913281 0
0.203906 0.90918 0
0.135938 0.905078 0
0.270313 0.848047 0
0.202734 0.844238 0
0.135156 0.84043 0
0.26875 0.782813 0
0.201563 0.779297 0
0.134375 0.775781 0
0.135938 0.905078 0
0.0679688 0.900977 0
0 0.896875 0
0.135156 0.84043 0
0.0675781 0.836621 0
0 0.832812 0
0.134375 0.775781 0
0.0671875 0.772266 0
0 0.76875 0
0.5375 0.796875 0
0.470313 0.793359 0
0.403125 0.789844 0
0.534375 0.730469 0
0.467578 0.727246 0
0.400781 0.724023 0
0.53125 0.664062 0
0.464844 0.661133 0
0.398438 0.658203 0
0.403125 0.789844 0
0.335938 0.786328 0
0.26875 0.782813 0
0.400781 0.724023 0
0.333984 0.720801 0
0.267188 0.717578 0
0.398438 0.658203 0
0.332031 0.655273 0
0.265625 0.652344 0
0.53125 0.664062 0
0.464844 0.661133 0
0.398438 0.658203 0
0.528125 0.597656 0
0.462109 0.59502 0
0.396094 0.592383 0
0.525 0.53125 0
0.459375 0.528906 0
0.39375 0.526563 0
0.398438 0.658203 0
0.332031 0.655273 0
0.265625 0.652344 0
0.396094 0.592383 0
0.330078 0.589746 0
0.264062 0.587109 0
0.39375 0.526563 0
0.328125 0.524219 0
0.2625 0.521875 0
0.26875 0.782813 0
0.201563 0.779297 0
0.134375 0.775781 0
0.267188 0.717578 0
0.200391 0.714355 0
0.133594 0.711133 0
0.265625 0.652344 0
0.199219 0.649414 0
0.132812 0.646484 0
0.134375 0.775781 0
0.0671875 0.772266 0
0 0.76875 0
0.133594 0.711133 0
0.0667969 0.70791 0
0 0.704687 0
0.132812 0.646484 0
0.0664062 0.643555 0
0 0.640625 0
0.265625 0.652344 0
0.199219 0.649414 0
0.132812 0.646484 0
0.264062 0.587109 0
0.198047 0.584473 0
0.132031 0.581836 0
0.2625 0.521875 0
0.196875 0.519531 0
0.13125 0.517187 0
0.132812 0.646484 0
0.0664062 0.643555 0
0 0.640625 0
0.132031 0.581836 0
0.0660156 0.579199 0
0 0.576562 0
0.13125 0.517187 0
0.065625 0.514844 0
0 0.5125 0
1.05 0.55 0
0.984375 0.547656 0
0.91875 0.545313 0
1.04375 0.48125 0
0.978516 0.479199 0
0.913281 0.477148 0
1.0375 0.4125 0
0.972656 0.410742 0
0.907813 0.408984 0
0.91875 0.545313 0
0.853125 0.542969 0
0.7875 0.540625 0
0.913281 0.477148 0
0.848047 0.475098 0
0.782813 0.473047 0
0.907813 0.408984 0
0.842969 0.407227 0
0.778125 0.405469 0
1.0375 0.4125 0
0.972656 0.410742 0
0.907813 0.408984 0
1.03125 0.34375 0
0.966797 0.342285 0
0.902344 0.34082 0
1.025 0.275 0
0.960937 0.273828 0
0.896875 0.272656 0
0.907813 0.408984 0
0.842969 0.407227 0
0.778125 0.405469 0
0.902344 0.34082 0
0.837891 0.339355 0
0.773438 0.337891 0
0.896875 0.272656 0
0.832812 0.271484 0
0.76875 0.270313 0
0.7875 0.540625 0
0.721875 0.538281 0
0.65625 0.535937 0
0.782813 0.473047 0
0.717578 0.470996 0
0.652344 0.468945 0
0.778125 0.405469 0
0.713281 0.403711 0
0.648438 0.401953 0
0.65625 0.535937 0
0.590625 0.533594 0
0.525 0.53125 0
0.652344 0.468945 0
0.587109 0.466895 0
0.521875 0.464844 0
0.648438 0.401953 0
0.583594 0.400195 0
0.51875 0.398438 0
0.778125 0.405469 0
0.713281 0.403711 0
0.648438 0.401953 0
0.773438 0.337891 0
0.708984 0.336426 0
0.644531 0.334961 0
0.76875 0.270313 0
0.704687 0.269141 0
0.640625 0.267969 0
0.648438 0.401953 0
0.583594 0.400195 0
0.51875 0.398438 0
0.644531 0.334961 0
0.580078 0.333496 0
0.515625 0.332031 0
0.640625 0.267969 0
0.576562 0.266797 0
0.5125 0.265625 0
1.025 0.275 0
0.960937 0.273828 0
0.896875 0.272656 0
1.01875 0.20625 0
0.955078 0.205371 0
0.891406 0.204492 0
1.0125 0.1375 0
0.949219 0.136914 0
0.885937 0.136328 0
0.896875 0.272656 0
0.832812 0.271484 0
0.76875 0.270313 0
0.891406 0.204492 0
0.827734 0.203613 0
0.764062 0.202734 0
0.885937 0.136328 0
0.822656 0.135742 0
0.759375 0.135156 0
1.0125 0.1375 0
0.949219 0.136914 0
0.885937 0.136328 0
1.00625 0.06875 0
0.943359 0.068457 0
0.880469 0.0681641 0
1 0 0
0.9375 0 0
0.875 0 0
0.885937 0.136328 0
0.822656 0.135742 0
0.759375 0.135156 0
0.880469 0.0681641 0
0.817578 0.0678711 0
0.754687 0.0675781 0
0.875 0 0
0.8125 0 0
0.75 0 0
0.76875 0.270313 0
0.704687 0.269141 0
0.640625 0.267969 0
0.764062 0.202734 0
0.700391 0.201855 0
0.636719 0.200977 0
0.759375 0.135156 0
0.696094 0.13457 0
0.632812 0.133984 0
0.640625 0.267969 0
0.576562 0.266797 0
0.5125 0.265625 0
0.636719 0.200977 0
0.573047 0.200098 0
0.509375 0.199219 0
0.632812 0.133984 0
0.569531 0.133398 0
0.50625 0.132812 0
0.759375 0.135156 0
0.696094 0.13457 0
0.632812 0.133984 0
0.754687 0.0675781 0
0.691797 0.0672852 0
0.628906 0.0669922 0
0.75 0 0
0.6875 0 0
0.625 0 0
0.632812 0.133984 0
0.569531 0.133398 0
0.50625 0.132812 0
0.628906 0.0669922 0
0.566016 0.0666992 0
0.503125 0.0664062 0
0.625 0 0
0.5625 0 0
0.5 0 0
0.525 0.53125 0
0.459375 0.528906 0
0.39375 0.526563 0
0.521875 0.464844 0
0.456641 0.462793 0
0.391406 0.460742 0
0.51875 0.398438 0
0.453906 0.39668 0
0.389063 0.394922 0
0.39375 0.526563 0
0.328125 0.524219 0
0.2625 0.521875 0
0.391406 0.460742 0
0.326172 0.458691 0
0.260938 0.456641 0
0.389063 0.394922 0
0.324219 0.393164 0
0.259375 0.391406 0
0.51875 0.398438 0
0.453906 0.39668 0
0.389063 0.394922 0
0.515625 0.332031 0
0.451172 0.330566 0
0.386719 0.329102 0
0.5125 0.265625 0
0.448437 0.264453 0
0.384375 0.263281 0
0.389063 0.394922 0
0.324219 0.393164 0
0.259375 0.391406 0
0.386719 0.329102 0
0.322266 0.327637 0
0.257812 0.326172 0
0.384375 0.263281 0
0.320312 0.262109 0
0.25625 0.260937 0
0.2625 0.521875 0
0.196875 0.519531 0
0.13125 0.517187 0
0.260938 0.456641 0
0.195703 0.45459 0
0.130469 0.452539 0
0.259375 0.391406 0
0.194531 0.389648 0
0.129688 0.387891 0
0.13125 0.517187 0
0.065625 0.514844 0
0 0.5125 0
0.130469 0.452539 0
0.0652344 0.450488 0
0 0.448437 0
0.129688 0.387891 0
0.0648438 0.386133 0
0 0.384375 0
0.259375 0.391406 0
0.194531 0.389648 0
0.129688 0.387891 0
0.257812 0.326172 0
0.193359 0.324707 0
0.128906 0.323242 0
0.25625 0.260937 0
0.192187 0.259766 0
0.128125 0.258594 0
0.129688 0.387891 0
0.0648438 0.386133 0
0 0.384375 0
0.128906 0.323242 0
0.0644531 0.321777 0
0 0.320312 0
0.128125 0.258594 0
0.0640625 0.257422 0
0 0.25625 0
0.5125 0.265625 0
0.448437 0.264453 0
0.384375 0.263281 0
0.509375 0.199219 0
0.445703 0.19834 0
0.382031 0.197461 0
0.50625 0.132812 0
0.442969 0.132227 0
0.379688 0.131641 0
0.384375 0.263281 0
0.320312 0.262109 0
0.25625 0.260937 0
0.382031 0.197461 0
0.318359 0.196582 0
0.254687 0.195703 0
[...]
POINT_DATA 34560
VECTORS v double
1.21146 -0.227856 0
1.20119 -0.205525 0
1.1918 -0.185932 0
1.17835 -0.215588 0
1.1662 -0.196278 0
1.15549 -0.178279 0
1.14257 -0.203148 0
1.12909 -0.185623 0
1.11664 -0.169221 0
1.1918 -0.185932 0
1.18417 -0.167294 0
1.17734 -0.150745 0
1.15549 -0.178279 0
1.146 -0.16144 0
1.13792 -0.145937 0
1.11664 -0.169221 0
1.10568 -0.153784 0
1.09582 -0.139372 0
1.14257 -0.203148 0
1.12909 -0.185623 0
1.11664 -0.169221 0
1.10068 -0.1868 0
1.08567 -0.17161 0
1.07185 -0.157263 0
1.05201 -0.171612 0
1.03633 -0.158345 0
1.02171 -0.145666 0
1.11664 -0.169221 0
1.10568 -0.153784 0
1.09582 -0.139372 0
1.07185 -0.157263 0
1.0595 -0.143621 0
1.04838 -0.130772 0
1.02171 -0.145666 0
1.00859 -0.133503 0
0.996606 -0.121934 0
1.17734 -0.150745 0
1.17143 -0.13504 0
1.16621 -0.120824 0
1.13792 -0.145937 0
1.13034 -0.131305 0
1.12409 -0.117784 0
1.09582 -0.139372 0
1.0869 -0.125759 0
1.0791 -0.112994 0
1.16621 -0.120824 0
1.16115 -0.107294 0
1.15661 -0.0947848 0
1.12409 -0.117784 0
1.11757 -0.104858 0
1.11219 -0.0927852 0
1.0791 -0.112994 0
1.07144 -0.100817 0
1.06482 -0.0892758 0
1.09582 -0.139372 0
1.0869 -0.125759 0
1.0791 -0.112994 0
1.04838 -0.130772 0
1.03826 -0.118455 0
1.02936 -0.106859 0
0.996606 -0.121934 0
0.985693 -0.110788 0
0.975946 -0.10019 0
1.0791 -0.112994 0
1.07144 -0.100817 0
1.06482 -0.0892758 0
1.02936 -0.106859 0
1.02077 -0.0956458 0
1.01327 -0.0849309 0
0.975946 -0.10019 0
0.966658 -0.089867 0
0.958463 -0.0799358 0
1.05201 -0.171612 0
1.03633 -0.158345 0
1.02171 -0.145666 0
0.998343 -0.155312 0
0.98218 -0.143858 0
0.966994 -0.132816 0
0.940147 -0.139688 0
0.923704 -0.129751 0
0.908123 -0.120116 0
1.02171 -0.145666 0
1.00859 -0.133503 0
0.996606 -0.121934 0
0.966994 -0.132816 0
0.953238 -0.122135 0
0.940554 -0.111926 0
0.908123 -0.120116 0
0.893919 -0.110757 0
0.880706 -0.101763 0
0.940147 -0.139688 0
0.923704 -0.129751 0
0.908123 -0.120116 0
0.87697 -0.122785 0
0.860385 -0.114365 0
0.844623 -0.106176 0
0.808974 -0.106938 0
0.792552 -0.0997976 0
0.776857 -0.092831 0
0.908123 -0.120116 0
0.893919 -0.110757 0
0.880706 -0.101763 0
0.844623 -0.106176 0
0.830138 -0.0981835 0
0.816601 -0.0904793 0
0.776857 -0.092831 0
0.762339 -0.0860208 0
0.748687 -0.0794459 0
0.996606 -0.121934 0
0.985693 -0.110788 0
0.975946 -0.10019 0
0.940554 -0.111926 0
0.928973 -0.102015 0
0.918515 -0.092535 0
0.880706 -0.101763 0
0.86862 -0.0929937 0
0.857611 -0.0845657 0
0.975946 -0.10019 0
0.966658 -0.089867 0
0.958463 -0.0799358 0
0.918515 -0.092535 0
0.908661 -0.0832329 0
0.899886 -0.0742249 0
0.857611 -0.0845657 0
0.847309 -0.0762488 0
0.838073 -0.0681438 0
0.880706 -0.101763 0
0.86862 -0.0929937 0
0.857611 -0.0845657 0
0.816601 -0.0904793 0
0.804168 -0.0829298 0
0.792778 -0.0756493 0
0.748687 -0.0794459 0
0.736093 -0.0729936 0
0.724479 -0.0667638 0
0.857611 -0.0845657 0
0.847309 -0.0762488 0
0.838073 -0.0681438 0
0.792778 -0.0756493 0
0.782155 -0.0684169 0
0.772591 -0.061329 0
0.724479 -0.0667638 0
0.713666 -0.060556 0
0.703884 -0.0544458 0
1.15661 -0.0947848 0
1.15215 -0.0826525 0
1.14814 -0.0710522 0
1.11219 -0.0927852 0
1.10658 -0.0810317 0
1.10198 -0.069747 0
1.06482 -0.0892758 0
1.05833 -0.0780594 0
1.05284 -0.0672049 0
1.14814 -0.0710522 0
1.14386 -0.0595403 0
1.13993 -0.0482092 0
1.10198 -0.069747 0
1.09681 -0.0584817 0
1.0925 -0.0473974 0
1.05284 -0.0672049 0
1.04703 -0.0563964 0
1.04211 -0.0456746 0
1.06482 -0.0892758 0
1.05833 -0.0780594 0
1.05284 -0.0672049 0
1.01327 -0.0849309 0
1.00609 -0.0744114 0
0.999937 -0.0642166 0
0.958463 -0.0799358 0
0.950711 -0.0701499 0
0.944008 -0.0606086 0
1.05284 -0.0672049 0
1.04703 -0.0563964 0
1.04211 -0.0456746 0
0.999937 -0.0642166 0
0.99368 -0.0540016 0
0.988341 -0.0437974 0
0.944008 -0.0606086 0
0.937358 -0.0510065 0
0.931672 -0.0413912 0
1.13993 -0.0482092 0
1.13597 -0.0366565 0
1.13238 -0.0249034 0
1.0925 -0.0473974 0
1.08799 -0.0360768 0
1.08428 -0.0245574 0
1.04211 -0.0456746 0
1.03724 -0.0347324 0
1.03324 -0.0236009 0
1.13238 -0.0249034 0
1.12851 -0.0126696 0
1.125 0 0
1.08428 -0.0245574 0
1.08012 -0.0125135 0
1.07666 0 0
1.03324 -0.0236009 0
1.0289 -0.0120159 0
1.02539 0 0
1.04211 -0.0456746 0
1.03724 -0.0347324 0
1.03324 -0.0236009 0
0.988341 -0.0437974 0
0.983231 -0.0333387 0
0.979029 -0.0227103 0
0.931672 -0.0413912 0
0.926323 -0.0315268 0
0.921932 -0.0214716 0
1.03324 -0.0236009 0
1.0289 -0.0120159 0
1.02539 0 0
0.979029 -0.0227103 0
0.974688 -0.0116155 0
0.971191 0 0
0.921932 -0.0214716 0
0.91754 -0.0109646 0
0.914062 0 0
0.958463 -0.0799358 0
0.950711 -0.0701499 0
0.944008 -0.0606086 0
0.899886 -0.0742249 0
0.891689 -0.0652834 0
0.884538 -0.0565146 0
0.838073 -0.0681438 0
0.829522 -0.0600507 0
0.822024 -0.052075 0
0.944008 -0.0606086 0
0.937358 -0.0510065 0
0.931672 -0.0413912 0
0.884538 -0.0565146 0
0.877611 -0.0476522 0
0.871668 -0.0387409 0
0.822024 -0.052075 0
0.814882 -0.0439829 0
0.808741 -0.0358101 0
0.838073 -0.0681438 0
0.829522 -0.0600507 0
0.822024 -0.052075 0
0.772591 -0.061329 0
0.763794 -0.0541907 0
0.75606 -0.047111 0
0.703884 -0.0544458 0
0.694928 -0.0482476 0
0.687035 -0.0420616 0
0.822024 -0.052075 0
0.814882 -0.0439829 0
0.808741 -0.0358101 0
0.75606 -0.047111 0
0.748789 -0.0398787 0
0.742539 -0.0325368 0
0.687035 -0.0420616 0
0.679698 -0.0357027 0
0.673396 -0.0292095 0
0.931672 -0.0413912 0
0.926323 -0.0315268 0
0.921932 -0.0214716 0
0.871668 -0.0387409 0
0.86619 -0.0295583 0
0.861705 -0.0201627 0
0.808741 -0.0358101 0
0.803162 -0.0273611 0
0.798604 -0.0186888 0
0.921932 -0.0214716 0
0.91754 -0.0109646 0
0.914062 0 0
0.861705 -0.0201627 0
0.857375 -0.0103166 0
0.854004 0 0
0.798604 -0.0186888 0
0.794311 -0.00957839 0
0.791016 0 0
0.808741 -0.0358101 0
0.803162 -0.0273611 0
0.798604 -0.0186888 0
0.742539 -0.0325368 0
0.736937 -0.0249066 0
0.732391 -0.0170405 0
0.673396 -0.0292095 0
0.667805 -0.0224269 0
0.663294 -0.015398 0
0.798604 -0.0186888 0
0.794311 -0.00957839 0
0.791016 0 0
0.732391 -0.0170405 0
0.728224 -0.00874371 0
0.725098 0 0
0.663294 -0.015398 0
0.659236 -0.00794264 0
0.65625 0 0
0.808974 -0.106938 0
0.792552 -0.0997976 0
0.776857 -0.092831 0
0.736546 -0.0904825 0
0.720362 -0.0845258 0
0.704863 -0.0787147 0
0.659465 -0.0749855 0
0.643692 -0.0700832 0
0.628561 -0.0653007 0
0.776857 -0.092831 0
0.762339 -0.0860208 0
0.748687 -0.0794459 0
0.704863 -0.0787147 0
0.69043 -0.0730397 0
0.676808 -0.067573 0
0.628561 -0.0653007 0
0.614414 -0.060641 0
0.601022 -0.0561687 0
0.659465 -0.0749855 0
0.643692 -0.0700832 0
0.628561 -0.0653007 0
0.57785 -0.0591056 0
0.562527 -0.0552232 0
0.547858 -0.0514431 0
0.490997 -0.0441983 0
0.476296 -0.0412863 0
0.462261 -0.038454 0
0.628561 -0.0653007 0
0.614414 -0.060641 0
0.601022 -0.0561687 0
0.547858 -0.0514431 0
0.534114 -0.0477673 0
0.521112 -0.0442564 0
0.462261 -0.038454 0
0.449122 -0.035704 0
0.436725 -0.0330914 0
0.748687 -0.0794459 0
0.736093 -0.0729936 0
0.724479 -0.0667638 0
0.676808 -0.067573 0
0.664176 -0.0622157 0
0.652474 -0.0570568 0
0.601022 -0.0561687 0
0.588548 -0.0518057 0
0.57694 -0.0476296 0
0.724479 -0.0667638 0
0.713666 -0.060556 0
0.703884 -0.0544458 0
0.652474 -0.0570568 0
0.641575 -0.0519097 0
0.631676 -0.046836 0
0.57694 -0.0476296 0
0.56611 -0.0434754 0
0.556229 -0.0393863 0
0.601022 -0.0561687 0
0.588548 -0.0518057 0
0.57694 -0.0476296 0
0.521112 -0.0442564 0
0.508961 -0.0408468 0
0.497634 -0.0376142 0
0.436725 -0.0330914 0
0.425129 -0.030568 0
0.414321 -0.0282023 0
0.57694 -0.0476296 0
0.56611 -0.0434754 0
0.556229 -0.0393863 0
0.497634 -0.0376142 0
0.487035 -0.0344172 0
0.47733 -0.0312911 0
0.414321 -0.0282023 0
0.404195 -0.0258835 0
0.394896 -0.0236412 0
0.490997 -0.0441983 0
0.476296 -0.0412863 0
0.462261 -0.038454 0
0.397952 -0.0292053 0
0.384113 -0.0272625 0
0.370987 -0.0253856 0
0.293917 -0.0157396 0
0.281958 -0.0147314 0
0.270647 -0.0137619 0
0.462261 -0.038454 0
0.449122 -0.035704 0
0.436725 -0.0330914 0
0.370987 -0.0253856 0
0.358721 -0.0235677 0
0.347215 -0.0218544 0
0.270647 -0.0137619 0
0.260088 -0.0128163 0
0.250213 -0.0119311 0
0.293917 -0.0157396 0
0.281958 -0.0147314 0
0.270647 -0.0137619 0
0.170563 -0.00472856 0
0.162342 -0.00440959 0
0.154578 -0.00411757 0
0 0 0
0 0 0
0 0 0
0.270647 -0.0137619 0
0.260088 -0.0128163 0
0.250213 -0.0119311 0
0.154578 -0.00411757 0
0.14728 -0.00383241 0
0.140462 -0.00358205 0
0 0 0
0 0 0
0 0 0
0.436725 -0.0330914 0
0.425129 -0.030568 0
0.414321 -0.0282023 0
0.347215 -0.0218544 0
0.336461 -0.0202003 0
0.326476 -0.0186668 0
0.250213 -0.0119311 0
0.240976 -0.0110637 0
0.232408 -0.0102678 0
0.414321 -0.0282023 0
0.404195 -0.0258835 0
0.394896 -0.0236412 0
0.326476 -0.0186668 0
0.317114 -0.0171646 0
0.308517 -0.0157249 0
0.232408 -0.0102678 0
0.224368 -0.00948216 0
0.216974 -0.00873725 0
0.250213 -0.0119311 0
0.240976 -0.0110637 0
0.232408 -0.0102678 0
0.140462 -0.00358205 0
0.134028 -0.00332231 0
0.128065 -0.00309832 0
0 0 0
0 0 0
0 0 0
0.232408 -0.0102678 0
0.224368 -0.00948216 0
0.216974 -0.00873725 0
0.128065 -0.00309832 0
0.122421 -0.0028604 0
0.117245 -0.00264739 0
0 0 0
0 0 0
0 0 0
0.703884 -0.0544458 0
0.694928 -0.0482476 0
0.687035 -0.0420616 0
0.631676 -0.046836 0
0.622638 -0.0416501 0
0.614667 -0.0364385 0
0.556229 -0.0393863 0
0.547207 -0.0351832 0
0.539233 -0.0309356 0
0.687035 -0.0420616 0
0.679698 -0.0357027 0
0.673396 -0.0292095 0
0.614667 -0.0364385 0
0.607327 -0.0310241 0
0.601038 -0.0254501 0
0.539233 -0.0309356 0
0.531947 -0.0264699 0
0.525723 -0.0218236 0
0.556229 -0.0393863 0
0.547207 -0.0351832 0
0.539233 -0.0309356 0
0.47733 -0.0312911 0
0.468435 -0.0280708 0
0.460552 -0.0248118 0
0.394896 -0.0236412 0
0.386327 -0.0213392 0
0.378693 -0.0190163 0
0.539233 -0.0309356 0
0.531947 -0.0264699 0
0.525723 -0.0218236 0
0.460552 -0.0248118 0
0.45338 -0.0213381 0
0.447272 -0.017671 0
0.378693 -0.0190163 0
0.371746 -0.0165032 0
0.36583 -0.013804 0
0.673396 -0.0292095 0
0.667805 -0.0224269 0
0.663294 -0.015398 0
0.601038 -0.0254501 0
0.595517 -0.0195815 0
0.591104 -0.0134631 0
0.525723 -0.0218236 0
0.520307 -0.0168832 0
0.516019 -0.0116905 0
0.663294 -0.015398 0
0.659236 -0.00794264 0
0.65625 0 0
0.591104 -0.0134631 0
0.58723 -0.00694091 0
0.584473 0 0
0.516019 -0.0116905 0
0.512323 -0.0061003 0
0.509766 0 0
0.525723 -0.0218236 0
0.520307 -0.0168832 0
0.516019 -0.0116905 0
0.447272 -0.017671 0
0.441997 -0.013708 0
0.43787 -0.00950294 0
0.36583 -0.013804 0
0.360745 -0.0108212 0
0.356812 -0.00760433 0
0.516019 -0.0116905 0
0.512323 -0.0061003 0
0.509766 0 0
0.43787 -0.00950294 0
0.434406 -0.00494149 0
0.432129 0 0
0.356812 -0.00760433 0
0.353587 -0.0040596 0
0.351562 0 0
0.394896 -0.0236412 0
0.386327 -0.0213392 0
0.378693 -0.0190163 0
0.308517 -0.0157249 0
0.30054 -0.0142412 0
0.293398 -0.0127583 0
0.216974 -0.00873725 0
0.210072 -0.00796571 0
0.203851 -0.00720746 0
0.378693 -0.0190163 0
0.371746 -0.0165032 0
0.36583 -0.013804 0
0.293398 -0.0127583 0
0.286854 -0.0111374 0
0.281256 -0.00937133 0
0.203851 -0.00720746 0
0.198112 -0.00637841 0
0.193167 -0.00547346 0
0.216974 -0.00873725 0
0.210072 -0.00796571 0
0.203851 -0.00720746 0
0.117245 -0.00264739 0
0.112355 -0.00240912 0
0.107982 -0.00218536 0
0 0 0
0 0 0
0 0 0
0.203851 -0.00720746 0
0.198112 -0.00637841 0
0.193167 -0.00547346 0
0.107982 -0.00218536 0
0.103879 -0.00192078 0
0.100371 -0.00164108 0
0 0 0
0 0 0
0 0 0
0.36583 -0.013804 0
0.360745 -0.0108212 0
0.356812 -0.00760433 0
0.281256 -0.00937133 0
0.276428 -0.00736444 0
0.272729 -0.00516661 0
0.193167 -0.00547346 0
0.188875 -0.00441898 0
0.185596 -0.00322388 0
0.356812 -0.00760433 0
0.353587 -0.0040596 0
0.351562 0 0
0.272729 -0.00516661 0
0.269779 -0.00270755 0
0.268066 0 0
0.185596 -0.00322388 0
0.183039 -0.00183913 0
0.181641 0 0
0.193167 -0.00547346 0
0.188875 -0.00441898 0
0.185596 -0.00322388 0
0.100371 -0.00164108 0
0.0972501 -0.00130648 0
0.0949627 -0.000922392 0
0 0 0
0 0 0
0 0 0
0.185596 -0.00322388 0
0.183039 -0.00183913 0
0.181641 0 0
0.0949627 -0.000922392 0
0.0931235 -0.000447172 0
0.0922852 0 0
0 0 0
0 0 0
0 0 0
1.62215 -0.338573 0
1.5893 -0.359178 0
1.55221 -0.376014 0
1.5532 -0.29321 0
1.52246 -0.31324 0
1.48926 -0.328992 0
1.48103 -0.25698 0
1.45601 -0.276039 0
1.42839 -0.291254 0
1.55221 -0.376014 0
1.51583 -0.385442 0
1.47653 -0.3908 0
1.48926 -0.328992 0
1.45596 -0.339647 0
1.42098 -0.345849 0
1.42839 -0.291254 0
1.4008 -0.302336 0
1.37135 -0.309335 0
1.48103 -0.25698 0
1.45601 -0.276039 0
1.42839 -0.291254 0
1.42191 -0.226927 0
1.39995 -0.242668 0
1.37566 -0.255446 0
1.34958 -0.196634 0
1.32933 -0.210672 0
1.307 -0.222216 0
1.42839 -0.291254 0
1.4008 -0.302336 0
1.37135 -0.309335 0
1.37566 -0.255446 0
1.35079 -0.264816 0
1.32412 -0.271025 0
1.307 -0.222216 0
1.28435 -0.231074 0
1.26016 -0.237265 0
1.47653 -0.3908 0
1.44134 -0.389782 0
1.40463 -0.384627 0
1.42098 -0.345849 0
1.38918 -0.347184 0
1.35667 -0.345069 0
1.37135 -0.309335 0
1.34433 -0.312423 0
1.31625 -0.311918 0
1.40463 -0.384627 0
1.37316 -0.375389 0
1.34124 -0.363291 0
1.35667 -0.345069 0
1.3283 -0.339249 0
1.29993 -0.330676 0
1.31625 -0.311918 0
1.29126 -0.30816 0
1.26585 -0.301559 0
1.37135 -0.309335 0
1.34433 -0.312423 0
1.31625 -0.311918 0
1.32412 -0.271025 0
1.29894 -0.273975 0
1.27266 -0.274085 0
1.26016 -0.237265 0
1.23733 -0.240805 0
1.21363 -0.24194 0
1.31625 -0.311918 0
1.29126 -0.30816 0
1.26585 -0.301559 0
1.27266 -0.274085 0
1.24873 -0.271571 0
1.22435 -0.266784 0
1.21363 -0.24194 0
1.19193 -0.240805 0
1.16989 -0.237638 0
1.34958 -0.196634 0
1.32933 -0.210672 0
1.307 -0.222216 0
1.27428 -0.173332 0
1.25653 -0.18563 0
1.23688 -0.195847 0
1.2028 -0.150543 0
1.18641 -0.1615 0
1.16832 -0.170693 0
1.307 -0.222216 0
1.28435 -0.231074 0
1.26016 -0.237265 0
1.23688 -0.195847 0
1.21699 -0.203744 0
1.1956 -0.209371 0
1.16832 -0.170693 0
1.14988 -0.177885 0
1.13009 -0.18314 0
1.2028 -0.150543 0
1.18641 -0.1615 0
1.16832 -0.170693 0
1.12883 -0.129249 0
1.11348 -0.138715 0
1.09654 -0.146686 0
1.05099 -0.108997 0
1.03648 -0.117297 0
1.0205 -0.124378 0
1.16832 -0.170693 0
1.14988 -0.177885 0
1.13009 -0.18314 0
1.09654 -0.146686 0
1.07929 -0.153006 0
1.06077 -0.157705 0
1.0205 -0.124378 0
1.00427 -0.130088 0
0.986856 -0.134435 0
1.26016 -0.237265 0
1.23733 -0.240805 0
1.21363 -0.24194 0
1.1956 -0.209371 0
1.17527 -0.212702 0
1.15395 -0.213948 0
1.13009 -0.18314 0
1.11104 -0.186414 0
1.0911 -0.1879 0
1.21363 -0.24194 0
1.19193 -0.240805 0
1.16989 -0.237638 0
1.15395 -0.213948 0
1.13417 -0.213233 0
1.11387 -0.210736 0
1.0911 -0.1879 0
1.0724 -0.187681 0
1.05324 -0.185918 0
1.13009 -0.18314 0
1.11104 -0.186414 0
1.0911 -0.1879 0
1.06077 -0.157705 0
1.04288 -0.160774 0
1.02416 -0.162317 0
0.986856 -0.134435 0
0.96997 -0.137389 0
0.952287 -0.13904 0
1.0911 -0.1879 0
1.0724 -0.187681 0
1.05324 -0.185918 0
1.02416 -0.162317 0
1.00647 -0.162426 0
0.988342 -0.161189 0
0.952287 -0.13904 0
0.935474 -0.139444 0
0.918219 -0.138673 0
1.34124 -0.363291 0
1.31582 -0.348994 0
1.29096 -0.332423 0
1.29993 -0.330676 0
1.27697 -0.319453 0
1.25466 -0.306811 0
1.26585 -0.301559 0
1.24445 -0.292778 0
1.22329 -0.282191 0
1.29096 -0.332423 0
1.27139 -0.315331 0
1.25289 -0.297399 0
1.25466 -0.306811 0
1.2366 -0.29286 0
1.21953 -0.277945 0
1.22329 -0.282191 0
1.20545 -0.270277 0
1.18826 -0.257324 0
1.26585 -0.301559 0
1.24445 -0.292778 0
1.22329 -0.282191 0
1.22435 -0.266784 0
1.20338 -0.260105 0
1.18258 -0.251831 0
1.16989 -0.237638 0
1.15066 -0.232718 0
1.13162 -0.226352 0
1.22329 -0.282191 0
1.20545 -0.270277 0
1.18826 -0.257324 0
1.18258 -0.251831 0
1.16484 -0.242426 0
1.14772 -0.232077 0
1.13162 -0.226352 0
1.11503 -0.218828 0
1.09891 -0.210333 0
1.25289 -0.297399 0
1.23942 -0.279782 0
1.22753 -0.261657 0
1.21953 -0.277945 0
1.20668 -0.262392 0
1.19509 -0.246726 0
1.18826 -0.257324 0
1.17451 -0.243902 0
1.16188 -0.230184 0
1.22753 -0.261657 0
1.21886 -0.244441 0
1.21146 -0.227856 0
1.19509 -0.246726 0
1.18606 -0.231125 0
1.17835 -0.215588 0
1.16188 -0.230184 0
1.15159 -0.216529 0
1.14257 -0.203148 0
1.18826 -0.257324 0
1.17451 -0.243902 0
1.16188 -0.230184 0
1.14772 -0.232077 0
1.13386 -0.221181 0
1.12098 -0.209849 0
1.09891 -0.210333 0
1.08546 -0.201177 0
1.07281 -0.191543 0
1.16188 -0.230184 0
1.15159 -0.216529 0
1.14257 -0.203148 0
1.12098 -0.209849 0
1.11029 -0.198369 0
1.10068 -0.1868 0
1.07281 -0.191543 0
1.06193 -0.181646 0
1.05201 -0.171612 0
1.16989 -0.237638 0
1.15066 -0.232718 0
1.13162 -0.226352 0
1.11387 -0.210736 0
1.09584 -0.206738 0
1.07777 -0.201461 0
1.05324 -0.185918 0
1.03597 -0.182826 0
1.01868 -0.178605 0
1.13162 -0.226352 0
1.11503 -0.218828 0
1.09891 -0.210333 0
1.07777 -0.201461 0
1.06172 -0.195201 0
1.04599 -0.18805 0
1.01868 -0.178605 0
1.00314 -0.173479 0
0.987895 -0.167553 0
1.05324 -0.185918 0
1.03597 -0.182826 0
1.01868 -0.178605 0
0.988342 -0.161189 0
0.971804 -0.158808 0
0.955214 -0.155412 0
0.918219 -0.138673 0
0.902302 -0.136886 0
0.886307 -0.134203 0
1.01868 -0.178605 0
1.00314 -0.173479 0
0.987895 -0.167553 0
0.955214 -0.155412 0
0.940092 -0.151214 0
0.925197 -0.146286 0
0.886307 -0.134203 0
0.871582 -0.130796 0
0.857049 -0.126729 0
1.09891 -0.210333 0
1.08546 -0.201177 0
1.07281 -0.191543 0
1.04599 -0.18805 0
1.03257 -0.180346 0
1.01981 -0.172225 0
0.987895 -0.167553 0
0.974636 -0.161089 0
0.961955 -0.154212 0
1.07281 -0.191543 0
1.06193 -0.181646 0
1.05201 -0.171612 0
1.01981 -0.172225 0
1.00866 -0.16388 0
0.998343 -0.155312 0
0.961955 -0.154212 0
0.950689 -0.147063 0
0.940147 -0.139688 0
0.987895 -0.167553 0
0.974636 -0.161089 0
0.961955 -0.154212 0
0.925197 -0.146286 0
0.91199 -0.140872 0
0.899281 -0.135067 0
0.857049 -0.126729 0
0.843993 -0.122212 0
0.831386 -0.117338 0
0.961955 -0.154212 0
0.950689 -0.147063 0
0.940147 -0.139688 0
0.899281 -0.135067 0
0.887805 -0.129026 0
0.87697 -0.122785 0
0.831386 -0.117338 0
0.819889 -0.112238 0
0.808974 -0.106938 0
1.05099 -0.108997 0
1.03648 -0.117297 0
1.0205 -0.124378 0
0.972752 -0.0913572 0
0.958775 -0.0983368 0
0.943442 -0.104319 0
0.893503 -0.0735065 0
0.879594 -0.079481 0
0.864401 -0.08464 0
1.0205 -0.124378 0
1.00427 -0.130088 0
0.986856 -0.134435 0
0.943442 -0.104319 0
0.927863 -0.109165 0
0.91118 -0.112876 0
0.864401 -0.08464 0
0.849045 -0.0888618 0
0.832656 -0.0921464 0
0.893503 -0.0735065 0
0.879594 -0.079481 0
0.864401 -0.08464 0
0.812139 -0.0566978 0
0.798285 -0.0616292 0
0.783191 -0.0659012 0
0.725542 -0.0401166 0
0.711828 -0.0441091 0
0.696832 -0.0476 0
0.864401 -0.08464 0
0.849045 -0.0888618 0
0.832656 -0.0921464 0
0.783191 -0.0659012 0
0.767957 -0.0694134 0
0.75172 -0.0721677 0
0.696832 -0.0476 0
0.681717 -0.0505006 0
0.665583 -0.0528131 0
0.986856 -0.134435 0
0.96997 -0.137389 0
0.952287 -0.13904 0
0.91118 -0.112876 0
0.89492 -0.11543 0
0.877899 -0.116896 0
0.832656 -0.0921464 0
0.816659 -0.0944725 0
0.799957 -0.0958922 0
0.952287 -0.13904 0
0.935474 -0.139444 0
0.918219 -0.138673 0
0.877899 -0.116896 0
0.861622 -0.117326 0
0.844921 -0.116764 0
0.799957 -0.0958922 0
0.783941 -0.096442 0
0.767542 -0.0961541 0
0.832656 -0.0921464 0
0.816659 -0.0944725 0
0.799957 -0.0958922 0
0.75172 -0.0721677 0
0.735829 -0.0741466 0
0.719245 -0.0753873 0
0.665583 -0.0528131 0
0.649755 -0.0545195 0
0.63323 -0.0556476 0
0.799957 -0.0958922 0
0.783941 -0.096442 0
0.767542 -0.0961541 0
0.719245 -0.0753873 0
0.70329 -0.075924 0
0.686957 -0.075772 0
0.63323 -0.0556476 0
0.617287 -0.0562241 0
0.600977 -0.0562558 0
0.725542 -0.0401166 0
0.711828 -0.0441091 0
0.696832 -0.0476 0
0.625799 -0.0247748 0
0.613138 -0.0277235 0
0.599059 -0.0303216 0
0.491434 -0.0107232 0
0.481663 -0.0125606 0
0.470295 -0.0142152 0
0.696832 -0.0476 0
0.681717 -0.0505006 0
0.665583 -0.0528131 0
0.599059 -0.0303216 0
0.584758 -0.0324927 0
0.569325 -0.0342446 0
0.470295 -0.0142152 0
0.458555 -0.0156318 0
0.445563 -0.0168122 0
0.491434 -0.0107232 0
0.481663 -0.0125606 0
0.470295 -0.0142152 0
0.293391 -0.00291219 0
0.289095 -0.00353164 0
0.283209 -0.00409528 0
0 0 0
0 0 0
0 0 0
0.470295 -0.0142152 0
0.458555 -0.0156318 0
0.445563 -0.0168122 0
0.283209 -0.00409528 0
0.277014 -0.00457544 0
0.269504 -0.00497086 0
0 0 0
0 0 0
0 0 0
0.665583 -0.0528131 0
0.649755 -0.0545195 0
0.63323 -0.0556476 0
0.569325 -0.0342446 0
0.554092 -0.0355604 0
0.538078 -0.036458 0
0.445563 -0.0168122 0
0.432586 -0.0177458 0