# vtk DataFile Version 3.0
#This file was generated by the deal.II library on 2025/1/7 at 22:33:45
ASCII
DATASET UNSTRUCTURED_GRID

POINTS 34560 double
1.1 1.1 0
1.03125 1.09531 0
0.9625 1.09063 0
1.09375 1.03125 0
1.02539 1.02686 0
0.957031 1.02246 0
1.0875 0.9625 0
1.01953 0.958398 0
0.951563 0.954297 0
0.9625 1.09063 0
0.89375 1.08594 0
0.825 1.08125 0
0.957031 1.02246 0
0.888672 1.01807 0
0.820312 1.01367 0
0.951563 0.954297 0
0.883594 0.950195 0
0.815625 0.946094 0
1.0875 0.9625 0
1.01953 0.958398 0
0.951563 0.954297 0
1.08125 0.89375 0
1.01367 0.889941 0
0.946094 0.886133 0
1.075 0.825 0
1.00781 0.821484 0
0.940625 0.817969 0
0.951563 0.954297 0
0.883594 0.950195 0
0.815625 0.946094 0
0.946094 0.886133 0
0.878516 0.882324 0
0.810938 0.878516 0
0.940625 0.817969 0
0.873438 0.814453 0
0.80625 0.810937 0
0.825 1.08125 0
0.75625 1.07656 0
0.6875 1.07187 0
0.820312 1.01367 0
0.751953 1.00928 0
0.683594 1.00488 0
0.815625 0.946094 0
0.747656 0.941992 0
0.679688 0.937891 0
0.6875 1.07187 0
0.61875 1.06719 0
0.55 1.0625 0
0.683594 1.00488 0
0.615234 1.00049 0
0.546875 0.996094 0
0.679688 0.937891 0
0.611719 0.933789 0
0.54375 0.929688 0
0.815625 0.946094 0
0.747656 0.941992 0
0.679688 0.937891 0
0.810938 0.878516 0
0.743359 0.874707 0
0.675781 0.870898 0
0.80625 0.810937 0
0.739063 0.807422 0
0.671875 0.803906 0
0.679688 0.937891 0
0.611719 0.933789 0
0.54375 0.929688 0
0.675781 0.870898 0
0.608203 0.86709 0
0.540625 0.863281 0
0.671875 0.803906 0
0.604688 0.800391 0
0.5375 0.796875 0
1.075 0.825 0
1.00781 0.821484 0
0.940625 0.817969 0
1.06875 0.75625 0
1.00195 0.753027 0
0.935156 0.749805 0
1.0625 0.6875 0
0.996094 0.68457 0
0.929688 0.681641 0
0.940625 0.817969 0
0.873438 0.814453 0
0.80625 0.810937 0
0.935156 0.749805 0
0.868359 0.746582 0
0.801563 0.743359 0
0.929688 0.681641 0
0.863281 0.678711 0
0.796875 0.675781 0
1.0625 0.6875 0
0.996094 0.68457 0
0.929688 0.681641 0
1.05625 0.61875 0
0.990234 0.616113 0
0.924219 0.613477 0
1.05 0.55 0
0.984375 0.547656 0
0.91875 0.545313 0
0.929688 0.681641 0
0.863281 0.678711 0
0.796875 0.675781 0
0.924219 0.613477 0
0.858203 0.61084 0
0.792188 0.608203 0
0.91875 0.545313 0
0.853125 0.542969 0
0.7875 0.540625 0
0.80625 0.810937 0
0.739063 0.807422 0
0.671875 0.803906 0
0.801563 0.743359 0
0.734766 0.740137 0
0.667969 0.736914 0
0.796875 0.675781 0
0.730469 0.672852 0
0.664062 0.669922 0
0.671875 0.803906 0
0.604688 0.800391 0
0.5375 0.796875 0
0.667969 0.736914 0
0.601172 0.733691 0
0.534375 0.730469 0
0.664062 0.669922 0
0.597656 0.666992 0
0.53125 0.664062 0
0.796875 0.675781 0
0.730469 0.672852 0
0.664062 0.669922 0
0.792188 0.608203 0
0.726172 0.605566 0
0.660156 0.60293 0
0.7875 0.540625 0
0.721875 0.538281 0
0.65625 0.535937 0
0.664062 0.669922 0
0.597656 0.666992 0
0.53125 0.664062 0
0.660156 0.60293 0
0.594141 0.600293 0
0.528125 0.597656 0
0.65625 0.535937 0
0.590625 0.533594 0
0.525 0.53125 0
0.55 1.0625 0
0.48125 1.05781 0
0.4125 1.05313 0
0.546875 0.996094 0
0.478516 0.991699 0
0.410156 0.987305 0
0.54375 0.929688 0
0.475781 0.925586 0
0.407813 0.921484 0
0.4125 1.05313 0
0.34375 1.04844 0
0.275 1.04375 0
0.410156 0.987305 0
0.341797 0.98291 0
0.273438 0.978516 0
0.407813 0.921484 0
0.339844 0.917383 0
0.271875 0.913281 0
0.54375 0.929688 0
0.475781 0.925586 0
0.407813 0.921484 0
0.540625 0.863281 0
0.473047 0.859473 0
0.405469 0.855664 0
0.5375 0.796875 0
0.470313 0.793359 0
0.403125 0.789844 0
0.407813 0.921484 0
0.339844 0.917383 0
0.271875 0.913281 0
0.405469 0.855664 0
0.337891 0.851855 0
0.270313 0.848047 0
0.403125 0.789844 0
0.335938 0.786328 0
0.26875 0.782813 0
0.275 1.04375 0
0.20625 1.03906 0
0.1375 1.03437 0
0.273438 0.978516 0
0.205078 0.974121 0
0.136719 0.969727 0
0.271875 0.913281 0
0.203906 0.90918 0
0.135938 0.905078 0
0.1375 1.03437 0
0.06875 1.02969 0
0 1.025 0
0.136719 0.969727 0
0.0683594 0.965332 0
0 0.960937 0
0.135938 0.905078 0
0.0679688 0.900977 0
0 0.896875 0
0.271875 0.913281 0
0.203906 0.90918 0
0.135938 0.905078 0
0.270313 0.848047 0
0.202734 0.844238 0
0.135156 0.84043 0
0.26875 0.782813 0
0.201563 0.779297 0
0.134375 0.775781 0
0.135938 0.905078 0
0.0679688 0.900977 0
0 0.896875 0
0.135156 0.84043 0
0.0675781 0.836621 0
0 0.832812 0
0.134375 0.775781 0
0.0671875 0.772266 0
0 0.76875 0
0.5375 0.796875 0
0.470313 0.793359 0
0.403125 0.789844 0
0.534375 0.730469 0
0.467578 0.727246 0
0.400781 0.724023 0
0.53125 0.664062 0
0.464844 0.661133 0
0.398438 0.658203 0
0.403125 0.789844 0
0.335938 0.786328 0
0.26875 0.782813 0
0.400781 0.724023 0
0.333984 0.720801 0
0.267188 0.717578 0
0.398438 0.658203 0
0.332031 0.655273 0
0.265625 0.652344 0
0.53125 0.664062 0
0.464844 0.661133 0
0.398438 0.658203 0
0.528125 0.597656 0
0.462109 0.59502 0
0.396094 0.592383 0
0.525 0.53125 0
0.459375 0.528906 0
0.39375 0.526563 0
0.398438 0.658203 0
0.332031 0.655273 0
0.265625 0.652344 0
0.396094 0.592383 0
0.330078 0.589746 0
0.264062 0.587109 0
0.39375 0.526563 0
0.328125 0.524219 0
0.2625 0.521875 0
0.26875 0.782813 0
0.201563 0.779297 0
0.134375 0.775781 0
0.267188 0.717578 0
0.200391 0.714355 0
0.133594 0.711133 0
0.265625 0.652344 0
0.199219 0.649414 0
0.132812 0.646484 0
0.134375 0.775781 0
0.0671875 0.772266 0
0 0.76875 0
0.133594 0.711133 0
0.0667969 0.70791 0
0 0.704687 0
0.132812 0.646484 0
0.0664062 0.643555 0
0 0.640625 0
0.265625 0.652344 0
0.199219 0.649414 0
0.132812 0.646484 0
0.264062 0.587109 0
0.198047 0.584473 0
0.132031 0.581836 0
0.2625 0.521875 0
0.196875 0.519531 0
0.13125 0.517187 0
0.132812 0.646484 0
0.0664062 0.643555 0
0 0.640625 0
0.132031 0.581836 0
0.0660156 0.579199 0
0 0.576562 0
0.13125 0.517187 0
0.065625 0.514844 0
0 0.5125 0
1.05 0.55 0
0.984375 0.547656 0
0.91875 0.545313 0
1.04375 0.48125 0
0.978516 0.479199 0
0.913281 0.477148 0
1.0375 0.4125 0
0.972656 0.410742 0
0.907813 0.408984 0
0.91875 0.545313 0
0.853125 0.542969 0
0.7875 0.540625 0
0.913281 0.477148 0
0.848047 0.475098 0
0.782813 0.473047 0
0.907813 0.408984 0
0.842969 0.407227 0
0.778125 0.405469 0
1.0375 0.4125 0
0.972656 0.410742 0
0.907813 0.408984 0
1.03125 0.34375 0
0.966797 0.342285 0
0.902344 0.34082 0
1.025 0.275 0
0.960937 0.273828 0
0.896875 0.272656 0
0.907813 0.408984 0
0.842969 0.407227 0
0.778125 0.405469 0
0.902344 0.34082 0
0.837891 0.339355 0
0.773438 0.337891 0
0.896875 0.272656 0
0.832812 0.271484 0
0.76875 0.270313 0
0.7875 0.540625 0
0.721875 0.538281 0
0.65625 0.535937 0
0.782813 0.473047 0
0.717578 0.470996 0
0.652344 0.468945 0
0.778125 0.405469 0
0.713281 0.403711 0
0.648438 0.401953 0
0.65625 0.535937 0
0.590625 0.533594 0
0.525 0.53125 0
0.652344 0.468945 0
0.587109 0.466895 0
0.521875 0.464844 0
0.648438 0.401953 0
0.583594 0.400195 0
0.51875 0.398438 0
0.778125 0.405469 0
0.713281 0.403711 0
0.648438 0.401953 0
0.773438 0.337891 0
0.708984 0.336426 0
0.644531 0.334961 0
0.76875 0.270313 0
0.704687 0.269141 0
0.640625 0.267969 0
0.648438 0.401953 0
0.583594 0.400195 0
0.51875 0.398438 0
0.644531 0.334961 0
0.580078 0.333496 0
0.515625 0.332031 0
0.640625 0.267969 0
0.576562 0.266797 0
0.5125 0.265625 0
1.025 0.275 0
0.960937 0.273828 0
0.896875 0.272656 0
1.01875 0.20625 0
0.955078 0.205371 0
0.891406 0.204492 0
1.0125 0.1375 0
0.949219 0.136914 0
0.885937 0.136328 0
0.896875 0.272656 0
0.832812 0.271484 0
0.76875 0.270313 0
0.891406 0.204492 0
0.827734 0.203613 0
0.764062 0.202734 0
0.885937 0.136328 0
0.822656 0.135742 0
0.759375 0.135156 0
1.0125 0.1375 0
0.949219 0.136914 0
0.885937 0.136328 0
1.00625 0.06875 0
0.943359 0.068457 0
0.880469 0.0681641 0
1 0 0
0.9375 0 0
0.875 0 0
0.885937 0.136328 0
0.822656 0.135742 0
0.759375 0.135156 0
0.880469 0.0681641 0
0.817578 0.0678711 0
0.754687 0.0675781 0
0.875 0 0
0.8125 0 0
0.75 0 0
0.76875 0.270313 0
0.704687 0.269141 0
0.640625 0.267969 0
0.764062 0.202734 0
0.700391 0.201855 0
0.636719 0.200977 0
0.759375 0.135156 0
0.696094 0.13457 0
0.632812 0.133984 0
0.640625 0.267969 0
0.576562 0.266797 0
0.5125 0.265625 0
0.636719 0.200977 0
0.573047 0.200098 0
0.509375 0.199219 0
0.632812 0.133984 0
0.569531 0.133398 0
0.50625 0.132812 0
0.759375 0.135156 0
0.696094 0.13457 0
0.632812 0.133984 0
0.754687 0.0675781 0
0.691797 0.0672852 0
0.628906 0.0669922 0
0.75 0 0
0.6875 0 0
0.625 0 0
0.632812 0.133984 0
0.569531 0.133398 0
0.50625 0.132812 0
0.628906 0.0669922 0
0.566016 0.0666992 0
0.503125 0.0664062 0
0.625 0 0
0.5625 0 0
0.5 0 0
0.525 0.53125 0
0.459375 0.528906 0
0.39375 0.526563 0
0.521875 0.464844 0
0.456641 0.462793 0
0.391406 0.460742 0
0.51875 0.398438 0
0.453906 0.39668 0
0.389063 0.394922 0
0.39375 0.526563 0
0.328125 0.524219 0
0.2625 0.521875 0
0.391406 0.460742 0
0.326172 0.458691 0
0.260938 0.456641 0
0.389063 0.394922 0
0.324219 0.393164 0
0.259375 0.391406 0
0.51875 0.398438 0
0.453906 0.39668 0
0.389063 0.394922 0
0.515625 0.332031 0
0.451172 0.330566 0
0.386719 0.329102 0
0.5125 0.265625 0
0.448437 0.264453 0
0.384375 0.263281 0
0.389063 0.394922 0
0.324219 0.393164 0
0.259375 0.391406 0
0.386719 0.329102 0
0.322266 0.327637 0
0.257812 0.326172 0
0.384375 0.263281 0
0.320312 0.262109 0
0.25625 0.260937 0
0.2625 0.521875 0
0.196875 0.519531 0
0.13125 0.517187 0
0.260938 0.456641 0
0.195703 0.45459 0
0.130469 0.452539 0
0.259375 0.391406 0
0.194531 0.389648 0
0.129688 0.387891 0
0.13125 0.517187 0
0.065625 0.514844 0
0 0.5125 0
0.130469 0.452539 0
0.0652344 0.450488 0
0 0.448437 0
0.129688 0.387891 0
0.0648438 0.386133 0
0 0.384375 0
0.259375 0.391406 0
0.194531 0.389648 0
0.129688 0.387891 0
0.257812 0.326172 0
0.193359 0.324707 0
0.128906 0.323242 0
0.25625 0.260937 0
0.192187 0.259766 0
0.128125 0.258594 0
0.129688 0.387891 0
0.0648438 0.386133 0
0 0.384375 0
0.128906 0.323242 0
0.0644531 0.321777 0
0 0.320312 0
0.128125 0.258594 0
0.0640625 0.257422 0
0 0.25625 0
0.5125 0.265625 0
0.448437 0.264453 0
0.384375 0.263281 0
0.509375 0.199219 0
0.445703 0.19834 0
0.382031 0.197461 0
0.50625 0.132812 0
0.442969 0.132227 0
0.379688 0.131641 0
0.384375 0.263281 0
0.320312 0.262109 0
0.25625 0.260937 0
0.382031 0.197461 0
0.318359 0.196582 0
0.254687 0.195703 0
[...]
POINT_DATA 34560
VECTORS v double
1.28292 -0.337913 0
1.26361 -0.312307 0
1.245 -0.287791 0
1.24746 -0.315398 0
1.22629 -0.293224 0
1.20683 -0.271279 0
1.20744 -0.293894 0
1.18566 -0.274188 0
1.16517 -0.254431 0
1.245 -0.287791 0
1.22967 -0.263664 0
1.21517 -0.240321 0
1.20683 -0.271279 0
1.18967 -0.249526 0
1.17431 -0.228202 0
1.16517 -0.254431 0
1.14707 -0.234738 0
1.13051 -0.215145 0
1.20744 -0.293894 0
1.18566 -0.274188 0
1.16517 -0.254431 0
1.16284 -0.26896 0
1.14007 -0.251906 0
1.11865 -0.234663 0
1.11126 -0.245573 0
1.08816 -0.230866 0
1.06632 -0.215789 0
1.16517 -0.254431 0
1.14707 -0.234738 0
1.13051 -0.215145 0
1.11865 -0.234663 0
1.0995 -0.217274 0
1.0819 -0.199811 0
1.06632 -0.215789 0
1.04669 -0.200407 0
1.02856 -0.184809 0
1.21517 -0.240321 0
1.20291 -0.21742 0
1.19156 -0.195066 0
1.17431 -0.228202 0
1.16047 -0.207028 0
1.14841 -0.186264 0
1.13051 -0.215145 0
1.11566 -0.195626 0
1.10248 -0.17627 0
1.19156 -0.195066 0
1.1815 -0.173215 0
1.17233 -0.151806 0
1.14841 -0.186264 0
1.13701 -0.165651 0
1.12726 -0.145492 0
1.10248 -0.17627 0
1.09011 -0.157033 0
1.07941 -0.138037 0
1.13051 -0.215145 0
1.11566 -0.195626 0
1.10248 -0.17627 0
1.0819 -0.199811 0
1.06608 -0.182212 0
1.05192 -0.164665 0
1.02856 -0.184809 0
1.01216 -0.16897 0
0.99742 -0.153043 0
1.10248 -0.17627 0
1.09011 -0.157033 0
1.07941 -0.138037 0
1.05192 -0.164665 0
1.03878 -0.147051 0
1.02729 -0.129515 0
0.99742 -0.153043 0
0.983774 -0.136929 0
0.97179 -0.120787 0
1.11126 -0.245573 0
1.08816 -0.230866 0
1.06632 -0.215789 0
1.05447 -0.221806 0
1.03138 -0.209227 0
1.00947 -0.196147 0
0.993752 -0.199164 0
0.9708 -0.188376 0
0.948881 -0.177043 0
1.06632 -0.215789 0
1.04669 -0.200407 0
1.02856 -0.184809 0
1.00947 -0.196147 0
0.989578 -0.182662 0
0.9711 -0.168879 0
0.948881 -0.177043 0
0.928828 -0.165271 0
0.91009 -0.153152 0
0.993752 -0.199164 0
0.9708 -0.188376 0
0.948881 -0.177043 0
0.928737 -0.175353 0
0.90589 -0.166314 0
0.884045 -0.15673 0
0.859151 -0.152895 0
0.836683 -0.145399 0
0.815134 -0.137365 0
0.948881 -0.177043 0
0.928828 -0.165271 0
0.91009 -0.153152 0
0.884045 -0.15673 0
0.863916 -0.146692 0
0.845063 -0.13628 0
0.815134 -0.137365 0
0.795152 -0.128867 0
0.77637 -0.119994 0
1.02856 -0.184809 0
1.01216 -0.16897 0
0.99742 -0.153043 0
0.9711 -0.168879 0
0.954302 -0.154778 0
0.939086 -0.140502 0
0.91009 -0.153152 0
0.89298 -0.140681 0
0.87739 -0.127982 0
0.99742 -0.153043 0
0.983774 -0.136929 0
0.97179 -0.120787 0
0.939086 -0.140502 0
0.925047 -0.125969 0
0.912645 -0.111315 0
0.87739 -0.127982 0
0.863037 -0.114976 0
0.850301 -0.101781 0
0.91009 -0.153152 0
0.89298 -0.140681 0
0.87739 -0.127982 0
0.845063 -0.13628 0
0.827751 -0.12549 0
0.811926 -0.114437 0
0.77637 -0.119994 0
0.759026 -0.110742 0
0.743105 -0.101222 0
0.87739 -0.127982 0
0.863037 -0.114976 0
0.850301 -0.101781 0
0.811926 -0.114437 0
0.797345 -0.103039 0
0.784377 -0.0914082 0
0.743105 -0.101222 0
0.728411 -0.0913538 0
0.715302 -0.0812325 0
1.17233 -0.151806 0
1.1641 -0.130952 0
1.15672 -0.110519 0
1.12726 -0.145492 0
1.11799 -0.125606 0
1.11021 -0.106157 0
1.07941 -0.138037 0
1.06935 -0.119247 0
1.06088 -0.1008 0
1.15672 -0.110519 0
1.14982 -0.090714 0
1.1437 -0.0713683 0
1.11021 -0.106157 0
1.10252 -0.0871136 0
1.09612 -0.0686096 0
1.06088 -0.1008 0
1.05257 -0.0827302 0
1.0457 -0.0651105 0
1.07941 -0.138037 0
1.06935 -0.119247 0
1.06088 -0.1008 0
1.02729 -0.129515 0
1.01667 -0.112045 0
1.00762 -0.0948368 0
0.97179 -0.120787 0
0.960759 -0.104622 0
0.951313 -0.0886114 0
1.06088 -0.1008 0
1.05257 -0.0827302 0
1.0457 -0.0651105 0
1.00762 -0.0948368 0
0.998967 -0.0779103 0
0.991741 -0.0613194 0
0.951313 -0.0886114 0
0.942399 -0.0727992 0
0.934932 -0.0572733 0
1.1437 -0.0713683 0
1.13811 -0.0526928 0
1.13325 -0.0344938 0
1.09612 -0.0686096 0
1.09004 -0.0506513 0
1.08511 -0.0331919 0
1.0457 -0.0651105 0
1.03923 -0.0479939 0
1.03408 -0.0314003 0
1.13325 -0.0344938 0
1.12877 -0.0169867 0
1.125 0 0
1.08511 -0.0331919 0
1.08037 -0.0163209 0
1.07666 0 0
1.03408 -0.0314003 0
1.02913 -0.0154187 0
1.02539 0 0
1.0457 -0.0651105 0
1.03923 -0.0479939 0
1.03408 -0.0314003 0
0.991741 -0.0613194 0
0.985116 -0.0451838 0
0.979807 -0.0295674 0
0.934932 -0.0572733 0
0.928147 -0.0421814 0
0.922688 -0.0275681 0
1.03408 -0.0314003 0
1.02913 -0.0154187 0
1.02539 0 0
0.979807 -0.0295674 0
0.974903 -0.0145419 0
0.971191 0 0
0.922688 -0.0275681 0
0.917763 -0.0135324 0
0.914062 0 0
0.97179 -0.120787 0
0.960759 -0.104622 0
0.951313 -0.0886114 0
0.912645 -0.111315 0
0.901285 -0.0965426 0
0.891513 -0.0818274 0
0.850301 -0.101781 0
0.838687 -0.0883975 0
0.82867 -0.0749917 0
0.951313 -0.0886114 0
0.942399 -0.0727992 0
0.934932 -0.0572733 0
0.891513 -0.0818274 0
0.882413 -0.0672407 0
0.874782 -0.0528773 0
0.82867 -0.0749917 0
0.819451 -0.0616451 0
0.811714 -0.0484605 0
0.850301 -0.101781 0
0.838687 -0.0883975 0
0.82867 -0.0749917 0
0.784377 -0.0914082 0
0.772581 -0.0795181 0
0.762406 -0.0675283 0
0.715302 -0.0812325 0
0.703391 -0.0708137 0
0.693114 -0.0602378 0
0.82867 -0.0749917 0
0.819451 -0.0616451 0
0.811714 -0.0484605 0
0.762406 -0.0675283 0
0.753126 -0.0555107 0
0.745363 -0.0435909 0
0.693114 -0.0602378 0
0.683823 -0.0495645 0
0.676082 -0.0389241 0
0.934932 -0.0572733 0
0.928147 -0.0421814 0
0.922688 -0.0275681 0
0.874782 -0.0528773 0
0.867921 -0.0389012 0
0.862411 -0.025373 0
0.811714 -0.0484605 0
0.804819 -0.0356291 0
0.799279 -0.0232155 0
0.922688 -0.0275681 0
0.917763 -0.0135324 0
0.914062 0 0
0.862411 -0.025373 0
0.857583 -0.0124262 0
0.854004 0 0
0.799279 -0.0232155 0
0.794518 -0.0113677 0
0.791016 0 0
0.811714 -0.0484605 0
0.804819 -0.0356291 0
0.799279 -0.0232155 0
0.745363 -0.0435909 0
0.7385 -0.0319735 0
0.733018 -0.0207476 0
0.676082 -0.0389241 0
0.669289 -0.0285371 0
0.663887 -0.0185032 0
0.799279 -0.0232155 0
0.794518 -0.0113677 0
0.791016 0 0
0.733018 -0.0207476 0
0.728417 -0.0100988 0
0.725098 0 0
0.663887 -0.0185032 0
0.659427 -0.00902078 0
0.65625 0 0
0.859151 -0.152895 0
0.836683 -0.145399 0
0.815134 -0.137365 0
0.786066 -0.130063 0
0.763936 -0.123933 0
0.742675 -0.117306 0
0.709133 -0.108165 0
0.687433 -0.103302 0
0.666543 -0.0979984 0
0.815134 -0.137365 0
0.795152 -0.128867 0
0.77637 -0.119994 0
0.742675 -0.117306 0
0.722836 -0.110249 0
0.704154 -0.102845 0
0.666543 -0.0979984 0
0.646949 -0.0922998 0
0.628466 -0.0862875 0
0.709133 -0.108165 0
0.687433 -0.103302 0
0.666543 -0.0979984 0
0.628647 -0.085893 0
0.607403 -0.0821533 0
0.586929 -0.0780553 0
0.543258 -0.0645835 0
0.522734 -0.0618963 0
0.502917 -0.0589363 0
0.666543 -0.0979984 0
0.646949 -0.0922998 0
0.628466 -0.0862875 0
0.586929 -0.0780553 0
0.567613 -0.0736249 0
0.549375 -0.068934 0
0.502917 -0.0589363 0
0.484117 -0.055708 0
0.466339 -0.0522807 0
0.77637 -0.119994 0
0.759026 -0.110742 0
0.743105 -0.101222 0
0.704154 -0.102845 0
0.686815 -0.0950894 0
0.67086 -0.0870808 0
0.628466 -0.0862875 0
0.611235 -0.0799493 0
0.595344 -0.0733838 0
0.743105 -0.101222 0
0.728411 -0.0913538 0
0.715302 -0.0812325 0
0.67086 -0.0870808 0
0.656093 -0.0787458 0
0.642886 -0.0701667 0
0.595344 -0.0733838 0
0.580598 -0.0665227 0
0.567376 -0.0594412 0
0.628466 -0.0862875 0
0.611235 -0.0799493 0
0.595344 -0.0733838 0
0.549375 -0.068934 0
0.532292 -0.0639619 0
0.516524 -0.0588001 0
0.466339 -0.0522807 0
0.449604 -0.0486186 0
0.434132 -0.0448112 0
0.595344 -0.0733838 0
0.580598 -0.0665227 0
0.567376 -0.0594412 0
0.516524 -0.0588001 0
0.501847 -0.0533803 0
0.488668 -0.0477756 0
0.434132 -0.0448112 0
0.41968 -0.0407862 0
0.406681 -0.0366163 0
0.543258 -0.0645835 0
0.522734 -0.0618963 0
0.502917 -0.0589363 0
0.452226 -0.0435266 0
0.432644 -0.0417047 0
0.413745 -0.0397074 0
0.347035 -0.0236778 0
0.329487 -0.0227242 0
0.312553 -0.0216811 0
0.502917 -0.0589363 0
0.484117 -0.055708 0
0.466339 -0.0522807 0
0.413745 -0.0397074 0
0.395712 -0.0375236 0
0.378663 -0.0352164 0
0.312553 -0.0216811 0
0.296344 -0.0205221 0
0.281031 -0.0193065 0
0.347035 -0.0236778 0
0.329487 -0.0227242 0
0.312553 -0.0216811 0
0.207687 -0.00740989 0
0.19504 -0.00706573 0
0.182997 -0.00672035 0
0 0 0
0 0 0
0 0 0
0.312553 -0.0216811 0
0.296344 -0.0205221 0
0.281031 -0.0193065 0
0.182997 -0.00672035 0
0.171386 -0.00632085 0
0.160591 -0.00593258 0
0 0 0
0 0 0
0 0 0
0.466339 -0.0522807 0
0.449604 -0.0486186 0
0.434132 -0.0448112 0
0.378663 -0.0352164 0
0.362515 -0.0327387 0
0.347587 -0.030177 0
0.281031 -0.0193065 0
0.266472 -0.0179799 0
0.25302 -0.016623 0
0.434132 -0.0448112 0
0.41968 -0.0407862 0
0.406681 -0.0366163 0
0.347587 -0.030177 0
0.333575 -0.0274571 0
0.320967 -0.0246443 0
0.25302 -0.016623 0
0.240364 -0.0151689 0
0.228974 -0.0136741 0
0.281031 -0.0193065 0
0.266472 -0.0179799 0
0.25302 -0.016623 0
0.160591 -0.00593258 0
0.150246 -0.00548216 0
0.140856 -0.00504853 0
0 0 0
0 0 0
0 0 0
0.25302 -0.016623 0
0.240364 -0.0151689 0
0.228974 -0.0136741 0
0.140856 -0.00504853 0
0.131955 -0.00456428 0
0.124096 -0.00408838 0
0 0 0
0 0 0
0 0 0
0.715302 -0.0812325 0
0.703391 -0.0708137 0
0.693114 -0.0602378 0
0.642886 -0.0701667 0
0.630887 -0.0612842 0
0.620537 -0.0522089 0
0.567376 -0.0594412 0
0.555348 -0.0520716 0
0.544966 -0.0444998 0
0.693114 -0.0602378 0
0.683823 -0.0495645 0
0.676082 -0.0389241 0
0.620537 -0.0522089 0
0.611255 -0.0429684 0
0.603571 -0.0336915 0
0.544966 -0.0444998 0
0.535718 -0.0367165 0
0.528119 -0.0288365 0
0.567376 -0.0594412 0
0.555348 -0.0520716 0
0.544966 -0.0444998 0
0.488668 -0.0477756 0
0.476646 -0.0419239 0
0.466259 -0.0358915 0
0.406681 -0.0366163 0
0.394788 -0.0322468 0
0.384489 -0.0277347 0
0.544966 -0.0444998 0
0.535718 -0.0367165 0
0.528119 -0.0288365 0
0.466259 -0.0358915 0
0.457044 -0.02964 0
0.449522 -0.023251 0
0.384489 -0.0277347 0
0.375369 -0.0230232 0
0.36796 -0.0181638 0
0.676082 -0.0389241 0
0.669289 -0.0285371 0
0.663887 -0.0185032 0
0.603571 -0.0336915 0
0.596895 -0.0245981 0
0.59164 -0.0158211 0
0.528119 -0.0288365 0
0.521587 -0.021064 0
0.516509 -0.0135461 0
0.663887 -0.0185032 0
0.659427 -0.00902078 0
0.65625 0 0
0.59164 -0.0158211 0
0.587404 -0.00761313 0
0.584473 0 0
0.516509 -0.0135461 0
0.512491 -0.0065528 0
0.509766 0 0
0.528119 -0.0288365 0
0.521587 -0.021064 0
0.516509 -0.0135461 0
0.449522 -0.023251 0
0.443146 -0.0168849 0
0.438282 -0.010704 0
0.36796 -0.0181638 0
0.361769 -0.0132527 0
0.357148 -0.00843039 0
0.516509 -0.0135461 0
0.512491 -0.0065528 0
0.509766 0 0
0.438282 -0.010704 0
0.434545 -0.0050313 0
0.432129 0 0
0.357148 -0.00843039 0
0.353704 -0.00402428 0
0.351562 0 0
0.406681 -0.0366163 0
0.394788 -0.0322468 0
0.384489 -0.0277347 0
0.320967 -0.0246443 0
0.309386 -0.0216905 0
0.299352 -0.0186491 0
0.228974 -0.0136741 0
0.218494 -0.0120952 0
0.209409 -0.01048 0
0.384489 -0.0277347 0
0.375369 -0.0230232 0
0.36796 -0.0181638 0
0.299352 -0.0186491 0
0.290449 -0.0154659 0
0.283227 -0.0121702 0
0.209409 -0.01048 0
0.201337 -0.00878779 0
0.194784 -0.00703774 0
0.228974 -0.0136741 0
0.218494 -0.0120952 0
0.209409 -0.01048 0
0.124096 -0.00408838 0
0.116806 -0.00357341 0
0.110631 -0.00306308 0
0 0 0
0 0 0
0 0 0
0.209409 -0.01048 0
0.201337 -0.00878779 0
0.194784 -0.00703774 0
0.110631 -0.00306308 0
0.105087 -0.00251999 0
0.100673 -0.00197293 0
0 0 0
0 0 0
0 0 0
0.36796 -0.0181638 0
0.361769 -0.0132527 0
0.357148 -0.00843039 0
0.283227 -0.0121702 0
0.277267 -0.0088043 0
0.272929 -0.00545126 0
0.194784 -0.00703774 0
0.189433 -0.00522544 0
0.185628 -0.00336302 0
0.357148 -0.00843039 0
0.353704 -0.00402428 0
0.351562 0 0
0.272929 -0.00545126 0
0.269833 -0.00240112 0
0.268066 0 0
0.185628 -0.00336302 0
0.18302 -0.00161981 0
0.181641 0 0
0.194784 -0.00703774 0
0.189433 -0.00522544 0
0.185628 -0.00336302 0
0.100673 -0.00197293 0
0.0970507 -0.00141678 0
0.0946202 -0.000832596 0
0 0 0
0 0 0
0 0 0
0.185628 -0.00336302 0
0.18302 -0.00161981 0
0.181641 0 0
0.0946202 -0.000832596 0
0.0929794 -0.000266364 0
0.0922852 0 0
0 0 0
0 0 0
0 0 0
1.81725 -0.301654 0
1.782 -0.342154 0
1.74118 -0.37767 0
1.73336 -0.251561 0
1.70068 -0.290007 0
1.66482 -0.323071 0
1.64239 -0.212477 0
1.61708 -0.248116 0
1.58729 -0.279375 0
1.74118 -0.37767 0
1.69924 -0.404349 0
1.65329 -0.425565 0
1.66482 -0.323071 0
1.62654 -0.349844 0
1.58611 -0.370823 0
1.58729 -0.279375 0
1.55616 -0.305447 0
1.5218 -0.326519 0
1.64239 -0.212477 0
1.61708 -0.248116 0
1.58729 -0.279375 0
1.57218 -0.183799 0
1.5501 -0.214254 0
1.52463 -0.241413 0
1.48782 -0.152529 0
1.46804 -0.180016 0
1.44513 -0.204653 0
1.58729 -0.279375 0
1.55616 -0.305447 0
1.5218 -0.326519 0
1.52463 -0.241413 0
1.49691 -0.264302 0
1.46655 -0.283296 0
1.44513 -0.204653 0
1.42028 -0.225882 0
1.39301 -0.243777 0
1.65329 -0.425565 0
1.61057 -0.438597 0
1.5655 -0.445928 0
1.58611 -0.370823 0
1.54738 -0.385541 0
1.50771 -0.395337 0
1.5218 -0.326519 0
1.48933 -0.342405 0
1.45488 -0.353497 0
1.5655 -0.445928 0
1.52561 -0.447479 0
1.48451 -0.444802 0
1.50771 -0.395337 0
1.47125 -0.399997 0
1.43469 -0.4006 0
1.45488 -0.353497 0
1.42321 -0.360057 0
1.39048 -0.362554 0
1.5218 -0.326519 0
1.48933 -0.342405 0
1.45488 -0.353497 0
1.46655 -0.283296 0
1.43666 -0.297898 0
1.40502 -0.308733 0
1.39301 -0.243777 0
1.36605 -0.258107 0
1.33755 -0.269207 0
1.45488 -0.353497 0
1.42321 -0.360057 0
1.39048 -0.362554 0
1.40502 -0.308733 0
1.37495 -0.31575 0
1.34392 -0.319432 0
1.33755 -0.269207 0
1.31021 -0.277044 0
1.28205 -0.281932 0
1.48782 -0.152529 0
1.46804 -0.180016 0
1.44513 -0.204653 0
1.40159 -0.130572 0
1.38463 -0.154968 0
1.36469 -0.17704 0
1.32262 -0.108384 0
1.30729 -0.1303 0
1.28921 -0.150279 0
1.44513 -0.204653 0
1.42028 -0.225882 0
1.39301 -0.243777 0
1.36469 -0.17704 0
1.3431 -0.196199 0
1.31912 -0.212557 0
1.28921 -0.150279 0
1.26951 -0.167761 0
1.24757 -0.182864 0
1.32262 -0.108384 0
1.30729 -0.1303 0
1.28921 -0.150279 0
1.2411 -0.0893644 0
1.2275 -0.108481 0
1.2112 -0.125977 0
1.15638 -0.0710589 0
1.14413 -0.0877837 0
1.12928 -0.103218 0
1.28921 -0.150279 0
1.26951 -0.167761 0
1.24757 -0.182864 0
1.2112 -0.125977 0
1.19328 -0.141414 0
1.17313 -0.154888 0
1.12928 -0.103218 0
1.1129 -0.116967 0
1.09436 -0.129094 0
1.39301 -0.243777 0
1.36605 -0.258107 0
1.33755 -0.269207 0
1.31912 -0.212557 0
1.2953 -0.225832 0
1.26981 -0.236344 0
1.24757 -0.182864 0
1.22548 -0.195305 0
1.20178 -0.205362 0
1.33755 -0.269207 0
1.31021 -0.277044 0
1.28205 -0.281932 0
1.26981 -0.236344 0
1.24513 -0.244014 0
1.21942 -0.249068 0
1.20178 -0.205362 0
1.17857 -0.212916 0
1.15433 -0.218188 0
1.24757 -0.182864 0
1.22548 -0.195305 0
1.20178 -0.205362 0
1.17313 -0.154888 0
1.15267 -0.16617 0
1.13058 -0.175446 0
1.09436 -0.129094 0
1.0754 -0.139385 0
1.05482 -0.147992 0
1.20178 -0.205362 0
1.17857 -0.212916 0
1.15433 -0.218188 0
1.13058 -0.175446 0
1.10878 -0.182632 0
1.08591 -0.187861 0
1.05482 -0.147992 0
1.03435 -0.154813 0
1.01276 -0.15995 0
1.48451 -0.444802 0
1.4502 -0.438316 0
1.41578 -0.428105 0
1.43469 -0.4006 0
1.40326 -0.397206 0
1.37247 -0.391122 0
1.39048 -0.362554 0
1.36201 -0.361598 0
1.33331 -0.357539 0
1.41578 -0.428105 0
1.38728 -0.41619 0
1.35926 -0.402201 0
1.37247 -0.391122 0
1.34595 -0.382512 0
1.32042 -0.371875 0
1.33331 -0.357539 0
1.30801 -0.35096 0
1.28299 -0.342157 0
1.39048 -0.362554 0
1.36201 -0.361598 0
1.33331 -0.357539 0
1.34392 -0.319432 0
1.31611 -0.320025 0
1.2881 -0.317964 0
1.28205 -0.281932 0
1.25651 -0.284065 0
1.23089 -0.283815 0
1.33331 -0.357539 0
1.30801 -0.35096 0
1.28299 -0.342157 0
1.2881 -0.317964 0
1.26303 -0.313701 0
1.23835 -0.307424 0
1.23089 -0.283815 0
1.20758 -0.281423 0
1.1846 -0.277087 0
1.35926 -0.402201 0
1.33699 -0.387469 0
1.31593 -0.370967 0
1.32042 -0.371875 0
1.29942 -0.35947 0
1.27969 -0.345778 0
1.28299 -0.342157 0
1.26182 -0.331758 0
1.24155 -0.319911 0
1.31593 -0.370967 0
1.29897 -0.354686 0
1.28292 -0.337913 0
1.27969 -0.345778 0
1.26288 -0.331068 0
1.24746 -0.315398 0
1.24155 -0.319911 0
1.22388 -0.307218 0
1.20744 -0.293894 0
1.28299 -0.342157 0
1.26182 -0.331758 0
1.24155 -0.319911 0
1.23835 -0.307424 0
1.2173 -0.299621 0
1.19714 -0.290421 0
1.1846 -0.277087 0
1.16454 -0.27113 0
1.14521 -0.263744 0
1.24155 -0.319911 0
1.22388 -0.307218 0
1.20744 -0.293894 0
1.19714 -0.290421 0
1.17945 -0.280222 0
1.16284 -0.26896 0
1.14521 -0.263744 0
1.12776 -0.255187 0
1.11126 -0.245573 0
1.28205 -0.281932 0
1.25651 -0.284065 0
1.23089 -0.283815 0
1.21942 -0.249068 0
1.19575 -0.251679 0
1.17166 -0.252152 0
1.15433 -0.218188 0
1.13167 -0.221292 0
1.10859 -0.222499 0
1.23089 -0.283815 0
1.20758 -0.281423 0
1.1846 -0.277087 0
1.17166 -0.252152 0
1.14942 -0.250719 0
1.12725 -0.247476 0
1.10859 -0.222499 0
1.08708 -0.221969 0
1.06562 -0.21982 0
1.15433 -0.218188 0
1.13167 -0.221292 0
1.10859 -0.222499 0
1.08591 -0.187861 0
1.0643 -0.191233 0
1.04219 -0.192916 0
1.01276 -0.15995 0
0.99211 -0.163461 0
0.970883 -0.1655 0
1.10859 -0.222499 0
1.08708 -0.221969 0
1.06562 -0.21982 0
1.04219 -0.192916 0
1.02136 -0.193062 0
1.00049 -0.191742 0
0.970883 -0.1655 0
0.950677 -0.166171 0
0.930343 -0.165535 0
1.1846 -0.277087 0
1.16454 -0.27113 0
1.14521 -0.263744 0
1.12725 -0.247476 0
1.10755 -0.242791 0
1.08841 -0.236828 0
1.06562 -0.21982 0
1.04631 -0.216336 0
1.02749 -0.211645 0
1.14521 -0.263744 0
1.12776 -0.255187 0
1.11126 -0.245573 0
1.08841 -0.236828 0
1.07101 -0.229853 0
1.05447 -0.221806 0
1.02749 -0.211645 0
1.01025 -0.205919 0
0.993752 -0.199164 0
1.06562 -0.21982 0
1.04631 -0.216336 0
1.02749 -0.211645 0
1.00049 -0.191742 0
0.981415 -0.1892 0
0.962718 -0.185523 0
0.930343 -0.165535 0
0.911538 -0.163791 0
0.893044 -0.16103 0
1.02749 -0.211645 0
1.01025 -0.205919 0
0.993752 -0.199164 0
0.962718 -0.185523 0
0.945393 -0.180902 0
0.928737 -0.175353 0
0.893044 -0.16103 0
0.875788 -0.1574 0
0.859151 -0.152895 0
1.15638 -0.0710589 0
1.14413 -0.0877837 0
1.12928 -0.103218 0
1.07179 -0.0569248 0
1.06068 -0.0711535 0
1.0471 -0.0843354 0
0.986225 -0.0423924 0
0.975873 -0.054449 0
0.963123 -0.0656693 0
1.12928 -0.103218 0
1.1129 -0.116967 0
1.09436 -0.129094 0
1.0471 -0.0843354 0
1.03202 -0.0961316 0
1.01483 -0.106586 0
0.963123 -0.0656693 0
0.948959 -0.0757611 0
0.932734 -0.0847598 0
0.986225 -0.0423924 0
0.975873 -0.054449 0
0.963123 -0.0656693 0
0.897613 -0.0304482 0
0.888039 -0.040276 0
0.876134 -0.0494411 0
0.803786 -0.0187579 0
0.795027 -0.0264882 0
0.783889 -0.0337345 0
0.963123 -0.0656693 0
0.948959 -0.0757611 0
0.932734 -0.0847598 0
0.876134 -0.0494411 0
0.86285 -0.0577076 0
0.847533 -0.065104 0
0.783889 -0.0337345 0
0.771419 -0.0403027 0
0.756898 -0.0462069 0
1.09436 -0.129094 0
1.0754 -0.139385 0
1.05482 -0.147992 0
1.01483 -0.106586 0
0.99709 -0.115519 0
0.977705 -0.123054 0
0.932734 -0.0847598 0
0.915888 -0.0925155 0
0.897413 -0.0991243 0
1.05482 -0.147992 0
1.03435 -0.154813 0
1.01276 -0.15995 0
0.977705 -0.123054 0
0.958253 -0.129103 0
0.937639 -0.133742 0
0.897413 -0.0991243 0
0.878777 -0.104512 0
0.858964 -0.108729 0
0.932734 -0.0847598 0
0.915888 -0.0925155 0
0.897413 -0.0991243 0
0.847533 -0.065104 0
0.831538 -0.0715099 0
0.813909 -0.0769959 0
0.756898 -0.0462069 0
0.741664 -0.0513542 0
0.724776 -0.055792 0
0.897413 -0.0991243 0
0.878777 -0.104512 0
0.858964 -0.108729 0
0.813909 -0.0769959 0
0.796036 -0.0815049 0
0.776951 -0.0850654 0
0.724776 -0.055792 0
0.707603 -0.0594809 0
0.6892 -0.0624284 0
0.803786 -0.0187579 0
0.795027 -0.0264882 0
0.783889 -0.0337345 0
0.696578 -0.00972595 0
0.689736 -0.0152534 0
0.680361 -0.0204607 0
0.554988 -0.00221197 0
0.551397 -0.00543744 0
0.545141 -0.00851453 0
0.783889 -0.0337345 0
0.771419 -0.0403027 0
0.756898 -0.0462069 0
0.680361 -0.0204607 0
0.669528 -0.0252025 0
0.656497 -0.0294804 0
0.545141 -0.00851453 0
0.537309 -0.0113509 0
0.527168 -0.013937 0
0.554988 -0.00221197 0
0.551397 -0.00543744 0
0.545141 -0.00851453 0
0.341292 -0.000429426 0
0.341328 -0.00148651 0
0.339074 -0.00249562 0
0 0 0
0 0 0
0 0 0
0.545141 -0.00851453 0
0.537309 -0.0113509 0
0.527168 -0.013937 0
0.339074 -0.00249562 0
0.335663 -0.00342958 0
0.330154 -0.00427183 0
0 0 0
0 0 0
0 0 0
0.756898 -0.0462069 0
0.741664 -0.0513542 0
0.724776 -0.055792 0
0.656497 -0.0294804 0
0.642618 -0.0332285 0
0.62696 -0.0364723 0
0.527168 -0.013937 0
0.515995 -0.0162377 0
0.502945 -0.0182513 0
0.724776 -0.055792 0
0.707603 -0.0594809 0
0.6892 -0.0624284 0
0.62696 -0.0364723 0
0.610912 -0.0391905 0