# vtk DataFile Version 3.0
#This file was generated by the deal.II library on 2025/1/8 at 0:28:24
ASCII
DATASET UNSTRUCTURED_GRID

POINTS 34560 double
1.1 1.1 0
1.03125 1.09531 0
0.9625 1.09063 0
1.09375 1.03125 0
1.02539 1.02686 0
0.957031 1.02246 0
1.0875 0.9625 0
1.01953 0.958398 0
0.951563 0.954297 0
0.9625 1.09063 0
0.89375 1.08594 0
0.825 1.08125 0
0.957031 1.02246 0
0.888672 1.01807 0
0.820312 1.01367 0
0.951563 0.954297 0
0.883594 0.950195 0
0.815625 0.946094 0
1.0875 0.9625 0
1.01953 0.958398 0
0.951563 0.954297 0
1.08125 0.89375 0
1.01367 0.889941 0
0.946094 0.886133 0
1.075 0.825 0
1.00781 0.821484 0
0.940625 0.817969 0
0.951563 0.954297 0
0.883594 0.950195 0
0.815625 0.946094 0
0.946094 0.886133 0
0.878516 0.882324 0
0.810938 0.878516 0
0.940625 0.817969 0
0.873438 0.814453 0
0.80625 0.810937 0
0.825 1.08125 0
0.75625 1.07656 0
0.6875 1.07187 0
0.820312 1.01367 0
0.751953 1.00928 0
0.683594 1.00488 0
0.815625 0.946094 0
0.747656 0.941992 0
0.679688 0.937891 0
0.6875 1.07187 0
0.61875 1.06719 0
0.55 1.0625 0
0.683594 1.00488 0
0.615234 1.00049 0
0.546875 0.996094 0
0.679688 0.937891 0
0.611719 0.933789 0
0.54375 0.929688 0
0.815625 0.946094 0
0.747656 0.941992 0
0.679688 0.937891 0
0.810938 0.878516 0
0.743359 0.874707 0
0.675781 0.870898 0
0.80625 0.810937 0
0.739063 0.807422 0
0.671875 0.803906 0
0.679688 0.937891 0
0.611719 0.933789 0
0.54375 0.929688 0
0.675781 0.870898 0
0.608203 0.86709 0
0.540625 0.863281 0
0.671875 0.803906 0
0.604688 0.800391 0
0.5375 0.796875 0
1.075 0.825 0
1.00781 0.821484 0
0.940625 0.817969 0
1.06875 0.75625 0
1.00195 0.753027 0
0.935156 0.749805 0
1.0625 0.6875 0
0.996094 0.68457 0
0.929688 0.681641 0
0.940625 0.817969 0
0.873438 0.814453 0
0.80625 0.810937 0
0.935156 0.749805 0
0.868359 0.746582 0
0.801563 0.743359 0
0.929688 0.681641 0
0.863281 0.678711 0
0.796875 0.675781 0
1.0625 0.6875 0
0.996094 0.68457 0
0.929688 0.681641 0
1.05625 0.61875 0
0.990234 0.616113 0
0.924219 0.613477 0
1.05 0.55 0
0.984375 0.547656 0
0.91875 0.545313 0
0.929688 0.681641 0
0.863281 0.678711 0
0.796875 0.675781 0
0.924219 0.613477 0
0.858203 0.61084 0
0.792188 0.608203 0
0.91875 0.545313 0
0.853125 0.542969 0
0.7875 0.540625 0
0.80625 0.810937 0
0.739063 0.807422 0
0.671875 0.803906 0
0.801563 0.743359 0
0.734766 0.740137 0
0.667969 0.736914 0
0.796875 0.675781 0
0.730469 0.672852 0
0.664062 0.669922 0
0.671875 0.803906 0
0.604688 0.800391 0
0.5375 0.796875 0
0.667969 0.736914 0
0.601172 0.733691 0
0.534375 0.730469 0
0.664062 0.669922 0
0.597656 0.666992 0
0.53125 0.664062 0
0.796875 0.675781 0
0.730469 0.672852 0
0.664062 0.669922 0
0.792188 0.608203 0
0.726172 0.605566 0
0.660156 0.60293 0
0.7875 0.540625 0
0.721875 0.538281 0
0.65625 0.535937 0
0.664062 0.669922 0
0.597656 0.666992 0
0.53125 0.664062 0
0.660156 0.60293 0
0.594141 0.600293 0
0.528125 0.597656 0
0.65625 0.535937 0
0.590625 0.533594 0
0.525 0.53125 0
0.55 1.0625 0
0.48125 1.05781 0
0.4125 1.05313 0
0.546875 0.996094 0
0.478516 0.991699 0
0.410156 0.987305 0
0.54375 0.929688 0
0.475781 0.925586 0
0.407813 0.921484 0
0.4125 1.05313 0
0.34375 1.04844 0
0.275 1.04375 0
0.410156 0.987305 0
0.341797 0.98291 0
0.273438 0.978516 0
0.407813 0.921484 0
0.339844 0.917383 0
0.271875 0.913281 0
0.54375 0.929688 0
0.475781 0.925586 0
0.407813 0.921484 0
0.540625 0.863281 0
0.473047 0.859473 0
0.405469 0.855664 0
0.5375 0.796875 0
0.470313 0.793359 0
0.403125 0.789844 0
0.407813 0.921484 0
0.339844 0.917383 0
0.271875 0.913281 0
0.405469 0.855664 0
0.337891 0.851855 0
0.270313 0.848047 0
0.403125 0.789844 0
0.335938 0.786328 0
0.26875 0.782813 0
0.275 1.04375 0
0.20625 1.03906 0
0.1375 1.03437 0
0.273438 0.978516 0
0.205078 0.974121 0
0.136719 0.969727 0
0.271875 0.913281 0
0.203906 0.90918 0
0.135938 0.905078 0
0.1375 1.03437 0
0.06875 1.02969 0
0 1.025 0
0.136719 0.969727 0
0.0683594 0.965332 0
0 0.960937 0
0.135938 0.905078 0
0.0679688 0.900977 0
0 0.896875 0
0.271875 0.913281 0
0.203906 0.90918 0
0.135938 0.905078 0
0.270313 0.848047 0
0.202734 0.844238 0
0.135156 0.84043 0
0.26875 0.782813 0
0.201563 0.779297 0
0.134375 0.775781 0
0.135938 0.905078 0
0.0679688 0.900977 0
0 0.896875 0
0.135156 0.84043 0
0.0675781 0.836621 0
0 0.832812 0
0.134375 0.775781 0
0.0671875 0.772266 0
0 0.76875 0
0.5375 0.796875 0
0.470313 0.793359 0
0.403125 0.789844 0
0.534375 0.730469 0
0.467578 0.727246 0
0.400781 0.724023 0
0.53125 0.664062 0
0.464844 0.661133 0
0.398438 0.658203 0
0.403125 0.789844 0
0.335938 0.786328 0
0.26875 0.782813 0
0.400781 0.724023 0
0.333984 0.720801 0
0.267188 0.717578 0
0.398438 0.658203 0
0.332031 0.655273 0
0.265625 0.652344 0
0.53125 0.664062 0
0.464844 0.661133 0
0.398438 0.658203 0
0.528125 0.597656 0
0.462109 0.59502 0
0.396094 0.592383 0
0.525 0.53125 0
0.459375 0.528906 0
0.39375 0.526563 0
0.398438 0.658203 0
0.332031 0.655273 0
0.265625 0.652344 0
0.396094 0.592383 0
0.330078 0.589746 0
0.264062 0.587109 0
0.39375 0.526563 0
0.328125 0.524219 0
0.2625 0.521875 0
0.26875 0.782813 0
0.201563 0.779297 0
0.134375 0.775781 0
0.267188 0.717578 0
0.200391 0.714355 0
0.133594 0.711133 0
0.265625 0.652344 0
0.199219 0.649414 0
0.132812 0.646484 0
0.134375 0.775781 0
0.0671875 0.772266 0
0 0.76875 0
0.133594 0.711133 0
0.0667969 0.70791 0
0 0.704687 0
0.132812 0.646484 0
0.0664062 0.643555 0
0 0.640625 0
0.265625 0.652344 0
0.199219 0.649414 0
0.132812 0.646484 0
0.264062 0.587109 0
0.198047 0.584473 0
0.132031 0.581836 0
0.2625 0.521875 0
0.196875 0.519531 0
0.13125 0.517187 0
0.132812 0.646484 0
0.0664062 0.643555 0
0 0.640625 0
0.132031 0.581836 0
0.0660156 0.579199 0
0 0.576562 0
0.13125 0.517187 0
0.065625 0.514844 0
0 0.5125 0
1.05 0.55 0
0.984375 0.547656 0
0.91875 0.545313 0
1.04375 0.48125 0
0.978516 0.479199 0
0.913281 0.477148 0
1.0375 0.4125 0
0.972656 0.410742 0
0.907813 0.408984 0
0.91875 0.545313 0
0.853125 0.542969 0
0.7875 0.540625 0
0.913281 0.477148 0
0.848047 0.475098 0
0.782813 0.473047 0
0.907813 0.408984 0
0.842969 0.407227 0
0.778125 0.405469 0
1.0375 0.4125 0
0.972656 0.410742 0
0.907813 0.408984 0
1.03125 0.34375 0
0.966797 0.342285 0
0.902344 0.34082 0
1.025 0.275 0
0.960937 0.273828 0
0.896875 0.272656 0
0.907813 0.408984 0
0.842969 0.407227 0
0.778125 0.405469 0
0.902344 0.34082 0
0.837891 0.339355 0
0.773438 0.337891 0
0.896875 0.272656 0
0.832812 0.271484 0
0.76875 0.270313 0
0.7875 0.540625 0
0.721875 0.538281 0
0.65625 0.535937 0
0.782813 0.473047 0
0.717578 0.470996 0
0.652344 0.468945 0
0.778125 0.405469 0
0.713281 0.403711 0
0.648438 0.401953 0
0.65625 0.535937 0
0.590625 0.533594 0
0.525 0.53125 0
0.652344 0.468945 0
0.587109 0.466895 0
0.521875 0.464844 0
0.648438 0.401953 0
0.583594 0.400195 0
0.51875 0.398438 0
0.778125 0.405469 0
0.713281 0.403711 0
0.648438 0.401953 0
0.773438 0.337891 0
0.708984 0.336426 0
0.644531 0.334961 0
0.76875 0.270313 0
0.704687 0.269141 0
0.640625 0.267969 0
0.648438 0.401953 0
0.583594 0.400195 0
0.51875 0.398438 0
0.644531 0.334961 0
0.580078 0.333496 0
0.515625 0.332031 0
0.640625 0.267969 0
0.576562 0.266797 0
0.5125 0.265625 0
1.025 0.275 0
0.960937 0.273828 0
0.896875 0.272656 0
1.01875 0.20625 0
0.955078 0.205371 0
0.891406 0.204492 0
1.0125 0.1375 0
0.949219 0.136914 0
0.885937 0.136328 0
0.896875 0.272656 0
0.832812 0.271484 0
0.76875 0.270313 0
0.891406 0.204492 0
0.827734 0.203613 0
0.764062 0.202734 0
0.885937 0.136328 0
0.822656 0.135742 0
0.759375 0.135156 0
1.0125 0.1375 0
0.949219 0.136914 0
0.885937 0.136328 0
1.00625 0.06875 0
0.943359 0.068457 0
0.880469 0.0681641 0
1 0 0
0.9375 0 0
0.875 0 0
0.885937 0.136328 0
0.822656 0.135742 0
0.759375 0.135156 0
0.880469 0.0681641 0
0.817578 0.0678711 0
0.754687 0.0675781 0
0.875 0 0
0.8125 0 0
0.75 0 0
0.76875 0.270313 0
0.704687 0.269141 0
0.640625 0.267969 0
0.764062 0.202734 0
0.700391 0.201855 0
0.636719 0.200977 0
0.759375 0.135156 0
0.696094 0.13457 0
0.632812 0.133984 0
0.640625 0.267969 0
0.576562 0.266797 0
0.5125 0.265625 0
0.636719 0.200977 0
0.573047 0.200098 0
0.509375 0.199219 0
0.632812 0.133984 0
0.569531 0.133398 0
0.50625 0.132812 0
0.759375 0.135156 0
0.696094 0.13457 0
0.632812 0.133984 0
0.754687 0.0675781 0
0.691797 0.0672852 0
0.628906 0.0669922 0
0.75 0 0
0.6875 0 0
0.625 0 0
0.632812 0.133984 0
0.569531 0.133398 0
0.50625 0.132812 0
0.628906 0.0669922 0
0.566016 0.0666992 0
0.503125 0.0664062 0
0.625 0 0
0.5625 0 0
0.5 0 0
0.525 0.53125 0
0.459375 0.528906 0
0.39375 0.526563 0
0.521875 0.464844 0
0.456641 0.462793 0
0.391406 0.460742 0
0.51875 0.398438 0
0.453906 0.39668 0
0.389063 0.394922 0
0.39375 0.526563 0
0.328125 0.524219 0
0.2625 0.521875 0
0.391406 0.460742 0
0.326172 0.458691 0
0.260938 0.456641 0
0.389063 0.394922 0
0.324219 0.393164 0
0.259375 0.391406 0
0.51875 0.398438 0
0.453906 0.39668 0
0.389063 0.394922 0
0.515625 0.332031 0
0.451172 0.330566 0
0.386719 0.329102 0
0.5125 0.265625 0
0.448437 0.264453 0
0.384375 0.263281 0
0.389063 0.394922 0
0.324219 0.393164 0
0.259375 0.391406 0
0.386719 0.329102 0
0.322266 0.327637 0
0.257812 0.326172 0
0.384375 0.263281 0
0.320312 0.262109 0
0.25625 0.260937 0
0.2625 0.521875 0
0.196875 0.519531 0
0.13125 0.517187 0
0.260938 0.456641 0
0.195703 0.45459 0
0.130469 0.452539 0
0.259375 0.391406 0
0.194531 0.389648 0
0.129688 0.387891 0
0.13125 0.517187 0
0.065625 0.514844 0
0 0.5125 0
0.130469 0.452539 0
0.0652344 0.450488 0
0 0.448437 0
0.129688 0.387891 0
0.0648438 0.386133 0
0 0.384375 0
0.259375 0.391406 0
0.194531 0.389648 0
0.129688 0.387891 0
0.257812 0.326172 0
0.193359 0.324707 0
0.128906 0.323242 0
0.25625 0.260937 0
0.192187 0.259766 0
0.128125 0.258594 0
0.129688 0.387891 0
0.0648438 0.386133 0
0 0.384375 0
0.128906 0.323242 0
0.0644531 0.321777 0
0 0.320312 0
0.128125 0.258594 0
0.0640625 0.257422 0
0 0.25625 0
0.5125 0.265625 0
0.448437 0.264453 0
0.384375 0.263281 0
0.509375 0.199219 0
0.445703 0.19834 0
0.382031 0.197461 0
0.50625 0.132812 0
0.442969 0.132227 0
0.379688 0.131641 0
0.384375 0.263281 0
0.320312 0.262109 0
0.25625 0.260937 0
0.382031 0.197461 0
0.318359 0.196582 0
0.254687 0.195703 0
[...]
POINT_DATA 34560
VECTORS v double
1.28248 -0.329772 0
1.26353 -0.305249 0
1.24518 -0.282003 0
1.24705 -0.307746 0
1.2263 -0.286616 0
1.2071 -0.265821 0
1.20726 -0.28678 0
1.18589 -0.268013 0
1.16566 -0.249302 0
1.24518 -0.282003 0
1.23002 -0.259166 0
1.21561 -0.237223 0
1.2071 -0.265821 0
1.19016 -0.245291 0
1.17487 -0.225251 0
1.16566 -0.249302 0
1.14776 -0.230729 0
1.13125 -0.21232 0
1.20726 -0.28678 0
1.18589 -0.268013 0
1.16566 -0.249302 0
1.1628 -0.262277 0
1.14043 -0.246093 0
1.11926 -0.229811 0
1.11125 -0.239401 0
1.08856 -0.225477 0
1.06701 -0.211263 0
1.16566 -0.249302 0
1.14776 -0.230729 0
1.13125 -0.21232 0
1.11926 -0.229811 0
1.10031 -0.213452 0
1.08277 -0.197084 0
1.06701 -0.211263 0
1.04759 -0.196808 0
1.02954 -0.1822 0
1.21561 -0.237223 0
1.20339 -0.215632 0
1.19203 -0.194569 0
1.17487 -0.225251 0
1.16108 -0.205329 0
1.14898 -0.185785 0
1.13125 -0.21232 0
1.11643 -0.19398 0
1.10318 -0.175777 0
1.19203 -0.194569 0
1.18191 -0.173792 0
1.17266 -0.153316 0
1.14898 -0.185785 0
1.13751 -0.16622 0
1.12765 -0.146961 0
1.10318 -0.175777 0
1.09072 -0.157555 0
1.07988 -0.139435 0
1.13125 -0.21232 0
1.11643 -0.19398 0
1.10318 -0.175777 0
1.08277 -0.197084 0
1.06697 -0.180584 0
1.05273 -0.16413 0
1.02954 -0.1822 0
1.01318 -0.167371 0
0.998355 -0.152462 0
1.10318 -0.175777 0
1.09072 -0.157555 0
1.07988 -0.139435 0
1.05273 -0.16413 0
1.03949 -0.147492 0
1.02783 -0.130817 0
0.998355 -0.152462 0
0.98459 -0.137279 0
0.972424 -0.121973 0
1.11125 -0.239401 0
1.08856 -0.225477 0
1.06701 -0.211263 0
1.05452 -0.216121 0
1.03186 -0.204245 0
1.01024 -0.191938 0
0.993813 -0.193985 0
0.971292 -0.183819 0
0.949674 -0.173167 0
1.06701 -0.211263 0
1.04759 -0.196808 0
1.02954 -0.1822 0
1.01024 -0.191938 0
0.990579 -0.179282 0
0.972188 -0.166387 0
0.949674 -0.173167 0
0.929871 -0.162126 0
0.911244 -0.150791 0
0.993813 -0.193985 0
0.971292 -0.183819 0
0.949674 -0.173167 0
0.928737 -0.170682 0
0.906332 -0.162195 0
0.884808 -0.153211 0
0.859082 -0.14875 0
0.83706 -0.141734 0
0.815846 -0.134218 0
0.949674 -0.173167 0
0.929871 -0.162126 0
0.911244 -0.150791 0
0.884808 -0.153211 0
0.864954 -0.143812 0
0.846243 -0.134086 0
0.815846 -0.134218 0
0.796157 -0.12627 0
0.777544 -0.117983 0
1.02954 -0.1822 0
1.01318 -0.167371 0
0.998355 -0.152462 0
0.972188 -0.166387 0
0.955438 -0.1532 0
0.940144 -0.139861 0
0.911244 -0.150791 0
0.894204 -0.139135 0
0.878556 -0.127282 0
0.998355 -0.152462 0
0.98459 -0.137279 0
0.972424 -0.121973 0
0.940144 -0.139861 0
0.925979 -0.126204 0
0.913378 -0.112358 0
0.878556 -0.127282 0
0.864082 -0.115089 0
0.851139 -0.102663 0
0.911244 -0.150791 0
0.894204 -0.139135 0
0.878556 -0.127282 0
0.846243 -0.134086 0
0.829034 -0.124008 0
0.813182 -0.113701 0
0.777544 -0.117983 0
0.760335 -0.109343 0
0.744422 -0.100466 0
0.878556 -0.127282 0
0.864082 -0.115089 0
0.851139 -0.102663 0
0.813182 -0.113701 0
0.7985 -0.103036 0
0.78533 -0.0921167 0
0.744422 -0.100466 0
0.729658 -0.0912436 0
0.716366 -0.0817641 0
1.17266 -0.153316 0
1.16437 -0.13309 0
1.15695 -0.113071 0
1.12765 -0.146961 0
1.11831 -0.127697 0
1.11047 -0.10866 0
1.07988 -0.139435 0
1.06973 -0.121267 0
1.06117 -0.103228 0
1.15695 -0.113071 0
1.14998 -0.0933756 0
1.14381 -0.0739212 0
1.11047 -0.10866 0
1.10269 -0.0897282 0
1.09624 -0.0711169 0
1.06117 -0.103228 0
1.05276 -0.0852783 0
1.04582 -0.0675552 0
1.07988 -0.139435 0
1.06973 -0.121267 0
1.06117 -0.103228 0
1.02783 -0.130817 0
1.0171 -0.113967 0
1.00794 -0.0971771 0
0.972424 -0.121973 0
0.961256 -0.106427 0
0.951681 -0.0908452 0
1.06117 -0.103228 0
1.05276 -0.0852783 0
1.04582 -0.0675552 0
1.00794 -0.0971771 0
0.999181 -0.0803824 0
0.991877 -0.0637009 0
0.951681 -0.0908452 0
0.942638 -0.0751796 0
0.935081 -0.0595788 0
1.14381 -0.0739212 0
1.13817 -0.0548794 0
1.13331 -0.0361206 0
1.09624 -0.0711169 0
1.0901 -0.0527969 0
1.08518 -0.0347893 0
1.04582 -0.0675552 0
1.0393 -0.0500881 0
1.03415 -0.0329561 0
1.13331 -0.0361206 0
1.12878 -0.0178684 0
1.125 0 0
1.08518 -0.0347893 0
1.08037 -0.017186 0
1.07666 0 0
1.03415 -0.0329561 0
1.02914 -0.0162616 0
1.02539 0 0
1.04582 -0.0675552 0
1.0393 -0.0500881 0
1.03415 -0.0329561 0
0.991877 -0.0637009 0
0.985191 -0.0472258 0
0.979875 -0.0310852 0
0.935081 -0.0595788 0
0.928228 -0.0441631 0
0.922759 -0.0290412 0
1.03415 -0.0329561 0
1.02914 -0.0162616 0
1.02539 0 0
0.979875 -0.0310852 0
0.974906 -0.0153651 0
0.971191 0 0
0.922759 -0.0290412 0
0.917767 -0.0143304 0
0.914062 0 0
0.972424 -0.121973 0
0.961256 -0.106427 0
0.951681 -0.0908452 0
0.913378 -0.112358 0
0.90186 -0.0982039 0
0.891931 -0.0839332 0
0.851139 -0.102663 0
0.839348 -0.0898923 0
0.829149 -0.0769457 0
0.951681 -0.0908452 0
0.942638 -0.0751796 0
0.935081 -0.0595788 0
0.891931 -0.0839332 0
0.882683 -0.0695163 0
0.874947 -0.0551015 0
0.829149 -0.0769457 0
0.81976 -0.0637953 0
0.8119 -0.0505876 0
0.851139 -0.102663 0
0.839348 -0.0898923 0
0.829149 -0.0769457 0
0.78533 -0.0921167 0
0.773346 -0.0808213 0
0.762964 -0.0693014 0
0.716366 -0.0817641 0
0.704267 -0.0719094 0
0.693764 -0.0618047 0
0.829149 -0.0769457 0
0.81976 -0.0637953 0
0.8119 -0.0505876 0
0.762964 -0.0693014 0
0.753488 -0.0575126 0
0.745576 -0.0456073 0
0.693764 -0.0618047 0
0.68425 -0.0513907 0
0.676333 -0.040807 0
0.935081 -0.0595788 0
0.928228 -0.0441631 0
0.922759 -0.0290412 0
0.874947 -0.0551015 0
0.86801 -0.0408219 0
0.862486 -0.0268033 0
0.8119 -0.0505876 0
0.804918 -0.0374766 0
0.79936 -0.0245943 0
0.922759 -0.0290412 0
0.917767 -0.0143304 0
0.914062 0 0
0.862486 -0.0268033 0
0.857586 -0.0132011 0
0.854004 0 0
0.79936 -0.0245943 0
0.794523 -0.012115 0
0.791016 0 0
0.8119 -0.0505876 0
0.804918 -0.0374766 0
0.79936 -0.0245943 0
0.745576 -0.0456073 0
0.738612 -0.0337425 0
0.733104 -0.0220748 0
0.676333 -0.040807 0
0.66942 -0.0302108 0
0.663983 -0.0197676 0
0.79936 -0.0245943 0
0.794523 -0.012115 0
0.791016 0 0
0.733104 -0.0220748 0
0.728421 -0.0108194 0
0.725098 0 0
0.663983 -0.0197676 0
0.659434 -0.00970873 0
0.65625 0 0
0.859082 -0.14875 0
0.83706 -0.141734 0
0.815846 -0.134218 0
0.785921 -0.126413 0
0.764231 -0.120703 0
0.743305 -0.11453 0
0.708842 -0.105018 0
0.687592 -0.100515 0
0.667049 -0.0956015 0
0.815846 -0.134218 0
0.796157 -0.12627 0
0.777544 -0.117983 0
0.743305 -0.11453 0
0.723771 -0.107951 0
0.70528 -0.101052 0
0.667049 -0.0956015 0
0.647777 -0.0903105 0
0.629507 -0.0847253 0
0.708842 -0.105018 0
0.687592 -0.100515 0
0.667049 -0.0956015 0
0.628132 -0.0832889 0
0.607371 -0.0798425 0
0.587272 -0.0760659 0
0.542419 -0.0625432 0
0.522419 -0.0600797 0
0.503022 -0.0573673 0
0.667049 -0.0956015 0
0.647777 -0.0903105 0
0.629507 -0.0847253 0
0.587272 -0.0760659 0
0.568304 -0.0719746 0
0.550305 -0.067638 0
0.503022 -0.0573673 0
0.484613 -0.0544049 0
0.467116 -0.0512577 0
0.777544 -0.117983 0
0.760335 -0.109343 0
0.744422 -0.100466 0
0.70528 -0.101052 0
0.688106 -0.0938179 0
0.6722 -0.0863568 0
0.629507 -0.0847253 0
0.612471 -0.0788229 0
0.596666 -0.0727126 0
0.744422 -0.100466 0
0.729658 -0.0912436 0
0.716366 -0.0817641 0
0.6722 -0.0863568 0
0.657404 -0.0785718 0
0.644052 -0.0705474 0
0.596666 -0.0727126 0
0.581935 -0.0663071 0
0.568615 -0.0596872 0
0.629507 -0.0847253 0
0.612471 -0.0788229 0
0.596666 -0.0727126 0
0.550305 -0.067638 0
0.533441 -0.063025 0
0.517791 -0.0582376 0
0.467116 -0.0512577 0
0.450634 -0.0478802 0
0.435316 -0.0443689 0
0.596666 -0.0727126 0
0.581935 -0.0663071 0
0.568615 -0.0596872 0
0.517791 -0.0582376 0
0.50317 -0.0531884 0
0.48994 -0.0479539 0
0.435316 -0.0443689 0
0.420961 -0.040633 0
0.407958 -0.0367463 0
0.542419 -0.0625432 0
0.522419 -0.0600797 0
0.503022 -0.0573673 0
0.45097 -0.042123 0
0.431968 -0.0404632 0
0.413549 -0.0386437 0
0.345856 -0.0229454 0
0.328896 -0.0220857 0
0.312452 -0.0211433 0
0.503022 -0.0573673 0
0.484613 -0.0544049 0
0.467116 -0.0512577 0
0.413549 -0.0386437 0
0.395967 -0.0366511 0
0.379261 -0.0345458 0
0.312452 -0.0211433 0
0.296703 -0.0200941 0
0.281744 -0.0189933 0
0.345856 -0.0229454 0
0.328896 -0.0220857 0
0.312452 -0.0211433 0
0.208342 -0.00719278 0
0.19606 -0.00688223 0
0.184284 -0.00657089 0
0 0 0
0 0 0
0 0 0
0.312452 -0.0211433 0
0.296703 -0.0200941 0
0.281744 -0.0189933 0
0.184284 -0.00657089 0
0.172921 -0.00621133 0
0.162276 -0.00586376 0
0 0 0
0 0 0
0 0 0
0.467116 -0.0512577 0
0.450634 -0.0478802 0
0.435316 -0.0443689 0
0.379261 -0.0345458 0
0.363417 -0.0322725 0
0.348688 -0.0299232 0
0.281744 -0.0189933 0
0.267493 -0.0177822 0
0.254242 -0.0165446 0
0.435316 -0.0443689 0
0.420961 -0.040633 0
0.407958 -0.0367463 0
0.348688 -0.0299232 0
0.334816 -0.0274103 0
0.322245 -0.0247971 0
0.254242 -0.0165446 0
0.241725 -0.0152066 0
0.230374 -0.0138233 0
0.281744 -0.0189933 0
0.267493 -0.0177822 0
0.254242 -0.0165446 0
0.162276 -0.00586376 0
0.152046 -0.00545417 0
0.14268 -0.00506178 0
0 0 0
0 0 0
0 0 0
0.254242 -0.0165446 0
0.241725 -0.0152066 0
0.230374 -0.0138233 0
0.14268 -0.00506178 0
0.133759 -0.00461505 0
0.125805 -0.00417584 0
0 0 0
0 0 0
0 0 0
0.716366 -0.0817641 0
0.704267 -0.0719094 0
0.693764 -0.0618047 0
0.644052 -0.0705474 0
0.631881 -0.0621724 0
0.621302 -0.0535464 0
0.568615 -0.0596872 0
0.556446 -0.0527551 0
0.545848 -0.0455925 0
0.693764 -0.0618047 0
0.68425 -0.0513907 0
0.676333 -0.040807 0
0.621302 -0.0535464 0
0.611773 -0.044587 0
0.603877 -0.0354124 0
0.545848 -0.0455925 0
0.536341 -0.0380992 0
0.528498 -0.0303625 0
0.568615 -0.0596872 0
0.556446 -0.0527551 0
0.545848 -0.0455925 0
0.48994 -0.0479539 0
0.477823 -0.042453 0
0.467256 -0.0367604 0
0.407958 -0.0367463 0
0.396013 -0.032641 0
0.385577 -0.0283895 0
0.545848 -0.0455925 0
0.536341 -0.0380992 0
0.528498 -0.0303625 0
0.467256 -0.0367604 0
0.457788 -0.0307727 0
0.45 -0.0245437 0
0.385577 -0.0283895 0
0.376228 -0.0238978 0
0.36855 -0.0191936 0
0.676333 -0.040807 0
0.66942 -0.0302108 0
0.663983 -0.0197676 0
0.603877 -0.0354124 0
0.597054 -0.0261603 0
0.591748 -0.017017 0
0.528498 -0.0303625 0
0.521788 -0.0224861 0
0.516635 -0.0146559 0
0.663983 -0.0197676 0
0.659434 -0.00970873 0
0.65625 0 0
0.591748 -0.017017 0
0.587412 -0.00826682 0
0.584473 0 0
0.516635 -0.0146559 0
0.512503 -0.00716453 0
0.509766 0 0
0.528498 -0.0303625 0
0.521788 -0.0224861 0
0.516635 -0.0146559 0
0.45 -0.0245437 0
0.443409 -0.0181304 0
0.438433 -0.0117056 0
0.36855 -0.0191936 0
0.362112 -0.0142832 0
0.357338 -0.00929396 0
0.516635 -0.0146559 0
0.512503 -0.00716453 0
0.509766 0 0
0.438433 -0.0117056 0
0.434561 -0.00559161 0
0.432129 0 0
0.357338 -0.00929396 0
0.353731 -0.00452021 0
0.351562 0 0
0.407958 -0.0367463 0
0.396013 -0.032641 0
0.385577 -0.0283895 0
0.322245 -0.0247971 0
0.310646 -0.0220213 0
0.300512 -0.0191549 0
0.230374 -0.0138233 0
0.219868 -0.0123395 0
0.210681 -0.0108162 0
0.385577 -0.0283895 0
0.376228 -0.0238978 0
0.36855 -0.0191936 0
0.300512 -0.0191549 0
0.291415 -0.0161214 0
0.283943 -0.0129361 0
0.210681 -0.0108162 0
0.202423 -0.00920081 0
0.195627 -0.00750841 0
0.230374 -0.0138233 0
0.219868 -0.0123395 0
0.210681 -0.0108162 0
0.125805 -0.00417584 0
0.118369 -0.00368911 0
0.112003 -0.00320679 0
0 0 0
0 0 0
0 0 0
0.210681 -0.0108162 0
0.202423 -0.00920081 0
0.195627 -0.00750841 0
0.112003 -0.00320679 0
0.106211 -0.00268413 0
0.101534 -0.00215184 0
0 0 0
0 0 0
0 0 0
0.36855 -0.0191936 0
0.362112 -0.0142832 0
0.357338 -0.00929396 0
0.283943 -0.0129361 0
0.277714 -0.00957887 0
0.273179 -0.00612255 0
0.195627 -0.00750841 0
0.18999 -0.00570663 0
0.185945 -0.00379941 0
0.357338 -0.00929396 0
0.353731 -0.00452021 0
0.351562 0 0
0.273179 -0.00612255 0
0.269879 -0.00279785 0
0.268066 0 0
0.185945 -0.00379941 0
0.183096 -0.00189848 0
0.181641 0 0
0.195627 -0.00750841 0
0.18999 -0.00570663 0
0.185945 -0.00379941 0
0.101534 -0.00215184 0
0.0976068 -0.00159028 0
0.0949399 -0.000985957 0
0 0 0
0 0 0
0 0 0
0.185945 -0.00379941 0
0.183096 -0.00189848 0
0.181641 0 0
0.0949399 -0.000985957 0
0.0930548 -0.000355986 0
0.0922852 0 0
0 0 0
0 0 0
0 0 0
1.80758 -0.287117 0
1.77352 -0.327906 0
1.73384 -0.363811 0
1.72238 -0.238292 0
1.69093 -0.276902 0
1.65611 -0.310211 0
1.63166 -0.200827 0
1.60752 -0.236478 0
1.57882 -0.267849 0
1.73384 -0.363811 0
1.69275 -0.390839 0
1.64752 -0.412425 0
1.65611 -0.310211 0
1.61878 -0.337265 0
1.57911 -0.358536 0
1.57882 -0.267849 0
1.54864 -0.294078 0
1.51513 -0.315345 0
1.63166 -0.200827 0
1.60752 -0.236478 0
1.57882 -0.267849 0
1.56145 -0.173263 0
1.54049 -0.203614 0
1.51603 -0.230747 0
1.47645 -0.143182 0
1.45777 -0.170491 0
1.43586 -0.195034 0
1.57882 -0.267849 0
1.54864 -0.294078 0
1.51513 -0.315345 0
1.51603 -0.230747 0
1.48925 -0.253684 0
1.45969 -0.272772 0
1.43586 -0.195034 0
1.41198 -0.216255 0
1.38557 -0.234196 0
1.64752 -0.412425 0
1.60546 -0.425763 0
1.56089 -0.433394 0
1.57911 -0.358536 0
1.54118 -0.373529 0
1.50212 -0.383607 0
1.51513 -0.315345 0
1.48346 -0.331422 0
1.44969 -0.342726 0
1.56089 -0.433394 0
1.52152 -0.435191 0
1.48081 -0.432769 0
1.50212 -0.383607 0
1.46636 -0.388524 0
1.43032 -0.38939 0
1.44969 -0.342726 0
1.4187 -0.349479 0
1.38655 -0.352186 0
1.51513 -0.315345 0
1.48346 -0.331422 0
1.44969 -0.342726 0
1.45969 -0.272772 0
1.4306 -0.287506 0
1.39964 -0.298501 0
1.38557 -0.234196 0
1.35947 -0.248621 0
1.33173 -0.259851 0
1.44969 -0.342726 0
1.4187 -0.349479 0
1.38655 -0.352186 0
1.39964 -0.298501 0
1.37026 -0.305697 0
1.33982 -0.309585 0
1.33173 -0.259851 0
1.30516 -0.267845 0
1.27767 -0.272917 0
1.47645 -0.143182 0
1.45777 -0.170491 0
1.43586 -0.195034 0
1.39053 -0.122494 0
1.37462 -0.14662 0
1.35568 -0.168508 0
1.31151 -0.101397 0
1.29721 -0.122993 0
1.28011 -0.142733 0
1.43586 -0.195034 0
1.41198 -0.216255 0
1.38557 -0.234196 0
1.35568 -0.168508 0
1.33502 -0.187574 0
1.3119 -0.203899 0
1.28011 -0.142733 0
1.26133 -0.160067 0
1.24024 -0.175087 0
1.31151 -0.101397 0
1.29721 -0.122993 0
1.28011 -0.142733 0
1.22964 -0.083498 0
1.21706 -0.102257 0
1.20174 -0.119471 0
1.1447 -0.0662602 0
1.13342 -0.0826188 0
1.11954 -0.0977511 0
1.28011 -0.142733 0
1.26133 -0.160067 0
1.24024 -0.175087 0
1.20174 -0.119471 0
1.18477 -0.134713 0
1.16551 -0.148056 0
1.11954 -0.0977511 0
1.10411 -0.111277 0
1.08648 -0.123235 0
1.38557 -0.234196 0
1.35947 -0.248621 0
1.33173 -0.259851 0
1.3119 -0.203899 0
1.28892 -0.217199 0
1.26416 -0.227781 0
1.24024 -0.175087 0
1.21898 -0.187509 0
1.19603 -0.197598 0
1.33173 -0.259851 0
1.30516 -0.267845 0
1.27767 -0.272917 0
1.26416 -0.227781 0
1.24023 -0.235558 0
1.21516 -0.240757 0
1.19603 -0.197598 0
1.17356 -0.205233 0
1.14998 -0.210627 0
1.24024 -0.175087 0
1.21898 -0.187509 0
1.19603 -0.197598 0
1.16551 -0.148056 0
1.14593 -0.159272 0
1.12464 -0.168536 0
1.08648 -0.123235 0
1.06842 -0.13342 0
1.04866 -0.141973 0
1.19603 -0.197598 0
1.17356 -0.205233 0
1.14998 -0.210627 0
1.12464 -0.168536 0
1.10362 -0.17576 0
1.08144 -0.181071 0
1.04866 -0.141973 0
1.02899 -0.148791 0
1.00813 -0.15397 0
1.48081 -0.432769 0
1.447 -0.426554 0
1.41298 -0.416643 0
1.43032 -0.38939 0
1.39956 -0.386253 0
1.36929 -0.38047 0
1.38655 -0.352186 0
1.35869 -0.351443 0
1.33051 -0.347641 0
1.41298 -0.416643 0
1.38495 -0.405073 0
1.35731 -0.391501 0
1.36929 -0.38047 0
1.34336 -0.372194 0
1.31829 -0.361946 0
1.33051 -0.347641 0
1.30576 -0.341352 0
1.28119 -0.332899 0
1.38655 -0.352186 0
1.35869 -0.351443 0
1.33051 -0.347641 0
1.33982 -0.309585 0
1.31265 -0.310405 0
1.28521 -0.308609 0
1.27767 -0.272917 0
1.25284 -0.275254 0
1.22784 -0.275242 0
1.33051 -0.347641 0
1.30576 -0.341352 0
1.28119 -0.332899 0
1.28521 -0.308609 0
1.26073 -0.304644 0
1.23655 -0.298719 0
1.22784 -0.275242 0
1.20516 -0.273115 0
1.18272 -0.26909 0
1.35731 -0.391501 0
1.33549 -0.37727 0
1.31482 -0.361344 0
1.31829 -0.361946 0
1.29784 -0.349985 0
1.27853 -0.33682 0
1.28119 -0.332899 0
1.26052 -0.322916 0
1.24066 -0.311563 0
1.31482 -0.361344 0
1.29824 -0.34574 0
1.28248 -0.329772 0
1.27853 -0.33682 0
1.26216 -0.322719 0
1.24705 -0.307746 0
1.24066 -0.311563 0
1.22339 -0.299441 0
1.20726 -0.28678 0
1.28119 -0.332899 0
1.26052 -0.322916 0
1.24066 -0.311563 0
1.23655 -0.298719 0
1.21605 -0.29132 0
1.19634 -0.282592 0
1.18272 -0.26909 0
1.16323 -0.263493 0
1.14438 -0.256529 0
1.24066 -0.311563 0
1.22339 -0.299441 0
1.20726 -0.28678 0
1.19634 -0.282592 0
1.17908 -0.272928 0
1.1628 -0.262277 0
1.14438 -0.256529 0
1.12739 -0.248458 0
1.11125 -0.239401 0
1.27767 -0.272917 0
1.25284 -0.275254 0
1.22784 -0.275242 0
1.21516 -0.240757 0
1.19216 -0.243544 0
1.16868 -0.244234 0
1.14998 -0.210627 0
1.12801 -0.21389 0
1.10554 -0.215297 0
1.22784 -0.275242 0
1.20516 -0.273115 0
1.18272 -0.26909 0
1.16868 -0.244234 0
1.14704 -0.24305 0
1.1254 -0.240101 0
1.10554 -0.215297 0
1.08465 -0.215 0
1.06374 -0.213123 0
1.14998 -0.210627 0
1.12801 -0.21389 0
1.10554 -0.215297 0
1.08144 -0.181071 0
1.06054 -0.184567 0
1.03906 -0.186417 0
1.00813 -0.15397 0
0.988214 -0.157568 0
0.967636 -0.159741 0
1.10554 -0.215297 0
1.08465 -0.215 0
1.06374 -0.213123 0
1.03906 -0.186417 0
1.01886 -0.186767 0
0.998534 -0.185691 0
0.967636 -0.159741 0
0.948072 -0.160584 0
0.928298 -0.160161 0
1.18272 -0.26909 0
1.16323 -0.263493 0
1.14438 -0.256529 0
1.1254 -0.240101 0
1.10628 -0.235755 0
1.08762 -0.230186 0
1.06374 -0.213123 0
1.04501 -0.209947 0
1.02669 -0.205611 0
1.14438 -0.256529 0
1.12739 -0.248458 0
1.11125 -0.239401 0
1.08762 -0.230186 0
1.07069 -0.22366 0
1.05452 -0.216121 0
1.02669 -0.205611 0
1.00993 -0.200286 0
0.993813 -0.193985 0
1.06374 -0.213123 0
1.04501 -0.209947 0
1.02669 -0.205611 0
0.998534 -0.185691 0
0.980033 -0.183428 0
0.961836 -0.180077 0
0.928298 -0.160161 0
0.910071 -0.158666 0
0.892081 -0.156198 0
1.02669 -0.205611 0
1.00993 -0.200286 0
0.993813 -0.193985 0
0.961836 -0.180077 0
0.944995 -0.175822 0
0.928737 -0.170682 0
0.892081 -0.156198 0
0.875313 -0.152893 0
0.859082 -0.14875 0
1.1447 -0.0662602 0
1.13342 -0.0826188 0
1.11954 -0.0977511 0
1.05984 -0.053074 0
1.04965 -0.0669438 0
1.03699 -0.0798202 0
0.974024 -0.039421 0
0.964487 -0.0511515 0
0.952583 -0.0620881 0
1.11954 -0.0977511 0
1.10411 -0.111277 0
1.08648 -0.123235 0
1.03699 -0.0798202 0
1.02285 -0.0913783 0
1.00656 -0.101643 0
0.952583 -0.0620881 0
0.939299 -0.0719505 0
0.923948 -0.0807592 0
0.974024 -0.039421 0
0.964487 -0.0511515 0
0.952583 -0.0620881 0
0.885365 -0.0282309 0
0.876492 -0.0377812 0
0.865329 -0.0467013 0
0.791662 -0.0171829 0
0.783488 -0.0246974 0
0.772981 -0.0317513 0
0.952583 -0.0620881 0
0.939299 -0.0719505 0
0.923948 -0.0807592 0
0.865329 -0.0467013 0
0.852839 -0.0547644 0
0.838325 -0.0619884 0
0.772981 -0.0317513 0
0.761207 -0.038156 0
0.747401 -0.0439198 0
1.08648 -0.123235 0
1.06842 -0.13342 0
1.04866 -0.141973 0
1.00656 -0.101643 0
0.989725 -0.110444 0
0.971197 -0.117894 0
0.923948 -0.0807592 0
0.907997 -0.0883719 0
0.890386 -0.0948767 0
1.04866 -0.141973 0
1.02899 -0.148791 0
1.00813 -0.15397 0
0.971197 -0.117894 0
0.95259 -0.123908 0
0.932752 -0.128554 0
0.890386 -0.0948767 0
0.872618 -0.100203 0
0.853618 -0.104394 0
0.923948 -0.0807592 0
0.907997 -0.0883719 0
0.890386 -0.0948767 0
0.838325 -0.0619884 0
0.823171 -0.0682587 0
0.806366 -0.0736397 0
0.747401 -0.0439198 0
0.732933 -0.0489527 0
0.716805 -0.0532991 0
0.890386 -0.0948767 0
0.872618 -0.100203 0
0.853618 -0.104394 0
0.806366 -0.0736397 0
0.78934 -0.0780781 0
0.771064 -0.0815978 0
0.716805 -0.0532991 0
0.700433 -0.0569214 0
0.682804 -0.0598248 0
0.791662 -0.0171829 0
0.783488 -0.0246974 0
0.772981 -0.0317513 0
0.684703 -0.00862677 0
0.678328 -0.0140085 0
0.66947 -0.0190855 0
0.544183 -0.00155856 0
0.540981 -0.00471146 0
0.535155 -0.00772459 0
0.772981 -0.0317513 0
0.761207 -0.038156 0
0.747401 -0.0439198 0
0.66947 -0.0190855 0
0.659233 -0.0237139 0
0.646822 -0.0278946 0
0.535155 -0.00772459 0
0.527833 -0.0105044 0
0.518225 -0.0130433 0
0.544183 -0.00155856 0
0.540981 -0.00471146 0
0.535155 -0.00772459 0
0.334285 -0.00017404 0
0.334738 -0.00121111 0
0.332901 -0.00220575 0
0 0 0
0 0 0
0 0 0
0.535155 -0.00772459 0
0.527833 -0.0105044 0
0.518225 -0.0130433 0
0.332901 -0.00220575 0
0.32997 -0.00312408 0
0.324929 -0.00395589 0
0 0 0
0 0 0
0 0 0
0.747401 -0.0439198 0
0.732933 -0.0489527 0
0.716805 -0.0532991 0
0.646822 -0.0278946 0
0.633628 -0.031562 0
0.618656 -0.0347409 0
0.518225 -0.0130433 0
0.507653 -0.0153044 0
0.49521 -0.0172876 0
0.716805 -0.0532991 0
0.700433 -0.0569214 0
0.682804 -0.0598248 0