# vtk DataFile Version 3.0
#This file was generated by the deal.II library on 2025/1/7 at 21:40:50
ASCII
DATASET UNSTRUCTURED_GRID

POINTS 34560 double
1.1 1.1 0
1.03125 1.09531 0
0.9625 1.09063 0
1.09375 1.03125 0
1.02539 1.02686 0
0.957031 1.02246 0
1.0875 0.9625 0
1.01953 0.958398 0
0.951563 0.954297 0
0.9625 1.09063 0
0.89375 1.08594 0
0.825 1.08125 0
0.957031 1.02246 0
0.888672 1.01807 0
0.820312 1.01367 0
0.951563 0.954297 0
0.883594 0.950195 0
0.815625 0.946094 0
1.0875 0.9625 0
1.01953 0.958398 0
0.951563 0.954297 0
1.08125 0.89375 0
1.01367 0.889941 0
0.946094 0.886133 0
1.075 0.825 0
1.00781 0.821484 0
0.940625 0.817969 0
0.951563 0.954297 0
0.883594 0.950195 0
0.815625 0.946094 0
0.946094 0.886133 0
0.878516 0.882324 0
0.810938 0.878516 0
0.940625 0.817969 0
0.873438 0.814453 0
0.80625 0.810937 0
0.825 1.08125 0
0.75625 1.07656 0
0.6875 1.07187 0
0.820312 1.01367 0
0.751953 1.00928 0
0.683594 1.00488 0
0.815625 0.946094 0
0.747656 0.941992 0
0.679688 0.937891 0
0.6875 1.07187 0
0.61875 1.06719 0
0.55 1.0625 0
0.683594 1.00488 0
0.615234 1.00049 0
0.546875 0.996094 0
0.679688 0.937891 0
0.611719 0.933789 0
0.54375 0.929688 0
0.815625 0.946094 0
0.747656 0.941992 0
0.679688 0.937891 0
0.810938 0.878516 0
0.743359 0.874707 0
0.675781 0.870898 0
0.80625 0.810937 0
0.739063 0.807422 0
0.671875 0.803906 0
0.679688 0.937891 0
0.611719 0.933789 0
0.54375 0.929688 0
0.675781 0.870898 0
0.608203 0.86709 0
0.540625 0.863281 0
0.671875 0.803906 0
0.604688 0.800391 0
0.5375 0.796875 0
1.075 0.825 0
1.00781 0.821484 0
0.940625 0.817969 0
1.06875 0.75625 0
1.00195 0.753027 0
0.935156 0.749805 0
1.0625 0.6875 0
0.996094 0.68457 0
0.929688 0.681641 0
0.940625 0.817969 0
0.873438 0.814453 0
0.80625 0.810937 0
0.935156 0.749805 0
0.868359 0.746582 0
0.801563 0.743359 0
0.929688 0.681641 0
0.863281 0.678711 0
0.796875 0.675781 0
1.0625 0.6875 0
0.996094 0.68457 0
0.929688 0.681641 0
1.05625 0.61875 0
0.990234 0.616113 0
0.924219 0.613477 0
1.05 0.55 0
0.984375 0.547656 0
0.91875 0.545313 0
0.929688 0.681641 0
0.863281 0.678711 0
0.796875 0.675781 0
0.924219 0.613477 0
0.858203 0.61084 0
0.792188 0.608203 0
0.91875 0.545313 0
0.853125 0.542969 0
0.7875 0.540625 0
0.80625 0.810937 0
0.739063 0.807422 0
0.671875 0.803906 0
0.801563 0.743359 0
0.734766 0.740137 0
0.667969 0.736914 0
0.796875 0.675781 0
0.730469 0.672852 0
0.664062 0.669922 0
0.671875 0.803906 0
0.604688 0.800391 0
0.5375 0.796875 0
0.667969 0.736914 0
0.601172 0.733691 0
0.534375 0.730469 0
0.664062 0.669922 0
0.597656 0.666992 0
0.53125 0.664062 0
0.796875 0.675781 0
0.730469 0.672852 0
0.664062 0.669922 0
0.792188 0.608203 0
0.726172 0.605566 0
0.660156 0.60293 0
0.7875 0.540625 0
0.721875 0.538281 0
0.65625 0.535937 0
0.664062 0.669922 0
0.597656 0.666992 0
0.53125 0.664062 0
0.660156 0.60293 0
0.594141 0.600293 0
0.528125 0.597656 0
0.65625 0.535937 0
0.590625 0.533594 0
0.525 0.53125 0
0.55 1.0625 0
0.48125 1.05781 0
0.4125 1.05313 0
0.546875 0.996094 0
0.478516 0.991699 0
0.410156 0.987305 0
0.54375 0.929688 0
0.475781 0.925586 0
0.407813 0.921484 0
0.4125 1.05313 0
0.34375 1.04844 0
0.275 1.04375 0
0.410156 0.987305 0
0.341797 0.98291 0
0.273438 0.978516 0
0.407813 0.921484 0
0.339844 0.917383 0
0.271875 0.913281 0
0.54375 0.929688 0
0.475781 0.925586 0
0.407813 0.921484 0
0.540625 0.863281 0
0.473047 0.859473 0
0.405469 0.855664 0
0.5375 0.796875 0
0.470313 0.793359 0
0.403125 0.789844 0
0.407813 0.921484 0
0.339844 0.917383 0
0.271875 0.913281 0
0.405469 0.855664 0
0.337891 0.851855 0
0.270313 0.848047 0
0.403125 0.789844 0
0.335938 0.786328 0
0.26875 0.782813 0
0.275 1.04375 0
0.20625 1.03906 0
0.1375 1.03437 0
0.273438 0.978516 0
0.205078 0.974121 0
0.136719 0.969727 0
0.271875 0.913281 0
0.203906 0.90918 0
0.135938 0.905078 0
0.1375 1.03437 0
0.06875 1.02969 0
0 1.025 0
0.136719 0.969727 0
0.0683594 0.965332 0
0 0.960937 0
0.135938 0.905078 0
0.0679688 0.900977 0
0 0.896875 0
0.271875 0.913281 0
0.203906 0.90918 0
0.135938 0.905078 0
0.270313 0.848047 0
0.202734 0.844238 0
0.135156 0.84043 0
0.26875 0.782813 0
0.201563 0.779297 0
0.134375 0.775781 0
0.135938 0.905078 0
0.0679688 0.900977 0
0 0.896875 0
0.135156 0.84043 0
0.0675781 0.836621 0
0 0.832812 0
0.134375 0.775781 0
0.0671875 0.772266 0
0 0.76875 0
0.5375 0.796875 0
0.470313 0.793359 0
0.403125 0.789844 0
0.534375 0.730469 0
0.467578 0.727246 0
0.400781 0.724023 0
0.53125 0.664062 0
0.464844 0.661133 0
0.398438 0.658203 0
0.403125 0.789844 0
0.335938 0.786328 0
0.26875 0.782813 0
0.400781 0.724023 0
0.333984 0.720801 0
0.267188 0.717578 0
0.398438 0.658203 0
0.332031 0.655273 0
0.265625 0.652344 0
0.53125 0.664062 0
0.464844 0.661133 0
0.398438 0.658203 0
0.528125 0.597656 0
0.462109 0.59502 0
0.396094 0.592383 0
0.525 0.53125 0
0.459375 0.528906 0
0.39375 0.526563 0
0.398438 0.658203 0
0.332031 0.655273 0
0.265625 0.652344 0
0.396094 0.592383 0
0.330078 0.589746 0
0.264062 0.587109 0
0.39375 0.526563 0
0.328125 0.524219 0
0.2625 0.521875 0
0.26875 0.782813 0
0.201563 0.779297 0
0.134375 0.775781 0
0.267188 0.717578 0
0.200391 0.714355 0
0.133594 0.711133 0
0.265625 0.652344 0
0.199219 0.649414 0
0.132812 0.646484 0
0.134375 0.775781 0
0.0671875 0.772266 0
0 0.76875 0
0.133594 0.711133 0
0.0667969 0.70791 0
0 0.704687 0
0.132812 0.646484 0
0.0664062 0.643555 0
0 0.640625 0
0.265625 0.652344 0
0.199219 0.649414 0
0.132812 0.646484 0
0.264062 0.587109 0
0.198047 0.584473 0
0.132031 0.581836 0
0.2625 0.521875 0
0.196875 0.519531 0
0.13125 0.517187 0
0.132812 0.646484 0
0.0664062 0.643555 0
0 0.640625 0
0.132031 0.581836 0
0.0660156 0.579199 0
0 0.576562 0
0.13125 0.517187 0
0.065625 0.514844 0
0 0.5125 0
1.05 0.55 0
0.984375 0.547656 0
0.91875 0.545313 0
1.04375 0.48125 0
0.978516 0.479199 0
0.913281 0.477148 0
1.0375 0.4125 0
0.972656 0.410742 0
0.907813 0.408984 0
0.91875 0.545313 0
0.853125 0.542969 0
0.7875 0.540625 0
0.913281 0.477148 0
0.848047 0.475098 0
0.782813 0.473047 0
0.907813 0.408984 0
0.842969 0.407227 0
0.778125 0.405469 0
1.0375 0.4125 0
0.972656 0.410742 0
0.907813 0.408984 0
1.03125 0.34375 0
0.966797 0.342285 0
0.902344 0.34082 0
1.025 0.275 0
0.960937 0.273828 0
0.896875 0.272656 0
0.907813 0.408984 0
0.842969 0.407227 0
0.778125 0.405469 0
0.902344 0.34082 0
0.837891 0.339355 0
0.773438 0.337891 0
0.896875 0.272656 0
0.832812 0.271484 0
0.76875 0.270313 0
0.7875 0.540625 0
0.721875 0.538281 0
0.65625 0.535937 0
0.782813 0.473047 0
0.717578 0.470996 0
0.652344 0.468945 0
0.778125 0.405469 0
0.713281 0.403711 0
0.648438 0.401953 0
0.65625 0.535937 0
0.590625 0.533594 0
0.525 0.53125 0
0.652344 0.468945 0
0.587109 0.466895 0
0.521875 0.464844 0
0.648438 0.401953 0
0.583594 0.400195 0
0.51875 0.398438 0
0.778125 0.405469 0
0.713281 0.403711 0
0.648438 0.401953 0
0.773438 0.337891 0
0.708984 0.336426 0
0.644531 0.334961 0
0.76875 0.270313 0
0.704687 0.269141 0
0.640625 0.267969 0
0.648438 0.401953 0
0.583594 0.400195 0
0.51875 0.398438 0
0.644531 0.334961 0
0.580078 0.333496 0
0.515625 0.332031 0
0.640625 0.267969 0
0.576562 0.266797 0
0.5125 0.265625 0
1.025 0.275 0
0.960937 0.273828 0
0.896875 0.272656 0
1.01875 0.20625 0
0.955078 0.205371 0
0.891406 0.204492 0
1.0125 0.1375 0
0.949219 0.136914 0
0.885937 0.136328 0
0.896875 0.272656 0
0.832812 0.271484 0
0.76875 0.270313 0
0.891406 0.204492 0
0.827734 0.203613 0
0.764062 0.202734 0
0.885937 0.136328 0
0.822656 0.135742 0
0.759375 0.135156 0
1.0125 0.1375 0
0.949219 0.136914 0
0.885937 0.136328 0
1.00625 0.06875 0
0.943359 0.068457 0
0.880469 0.0681641 0
1 0 0
0.9375 0 0
0.875 0 0
0.885937 0.136328 0
0.822656 0.135742 0
0.759375 0.135156 0
0.880469 0.0681641 0
0.817578 0.0678711 0
0.754687 0.0675781 0
0.875 0 0
0.8125 0 0
0.75 0 0
0.76875 0.270313 0
0.704687 0.269141 0
0.640625 0.267969 0
0.764062 0.202734 0
0.700391 0.201855 0
0.636719 0.200977 0
0.759375 0.135156 0
0.696094 0.13457 0
0.632812 0.133984 0
0.640625 0.267969 0
0.576562 0.266797 0
0.5125 0.265625 0
0.636719 0.200977 0
0.573047 0.200098 0
0.509375 0.199219 0
0.632812 0.133984 0
0.569531 0.133398 0
0.50625 0.132812 0
0.759375 0.135156 0
0.696094 0.13457 0
0.632812 0.133984 0
0.754687 0.0675781 0
0.691797 0.0672852 0
0.628906 0.0669922 0
0.75 0 0
0.6875 0 0
0.625 0 0
0.632812 0.133984 0
0.569531 0.133398 0
0.50625 0.132812 0
0.628906 0.0669922 0
0.566016 0.0666992 0
0.503125 0.0664062 0
0.625 0 0
0.5625 0 0
0.5 0 0
0.525 0.53125 0
0.459375 0.528906 0
0.39375 0.526563 0
0.521875 0.464844 0
0.456641 0.462793 0
0.391406 0.460742 0
0.51875 0.398438 0
0.453906 0.39668 0
0.389063 0.394922 0
0.39375 0.526563 0
0.328125 0.524219 0
0.2625 0.521875 0
0.391406 0.460742 0
0.326172 0.458691 0
0.260938 0.456641 0
0.389063 0.394922 0
0.324219 0.393164 0
0.259375 0.391406 0
0.51875 0.398438 0
0.453906 0.39668 0
0.389063 0.394922 0
0.515625 0.332031 0
0.451172 0.330566 0
0.386719 0.329102 0
0.5125 0.265625 0
0.448437 0.264453 0
0.384375 0.263281 0
0.389063 0.394922 0
0.324219 0.393164 0
0.259375 0.391406 0
0.386719 0.329102 0
0.322266 0.327637 0
0.257812 0.326172 0
0.384375 0.263281 0
0.320312 0.262109 0
0.25625 0.260937 0
0.2625 0.521875 0
0.196875 0.519531 0
0.13125 0.517187 0
0.260938 0.456641 0
0.195703 0.45459 0
0.130469 0.452539 0
0.259375 0.391406 0
0.194531 0.389648 0
0.129688 0.387891 0
0.13125 0.517187 0
0.065625 0.514844 0
0 0.5125 0
0.130469 0.452539 0
0.0652344 0.450488 0
0 0.448437 0
0.129688 0.387891 0
0.0648438 0.386133 0
0 0.384375 0
0.259375 0.391406 0
0.194531 0.389648 0
0.129688 0.387891 0
0.257812 0.326172 0
0.193359 0.324707 0
0.128906 0.323242 0
0.25625 0.260937 0
0.192187 0.259766 0
0.128125 0.258594 0
0.129688 0.387891 0
0.0648438 0.386133 0
0 0.384375 0
0.128906 0.323242 0
0.0644531 0.321777 0
0 0.320312 0
0.128125 0.258594 0
0.0640625 0.257422 0
0 0.25625 0
0.5125 0.265625 0
0.448437 0.264453 0
0.384375 0.263281 0
0.509375 0.199219 0
0.445703 0.19834 0
0.382031 0.197461 0
0.50625 0.132812 0
0.442969 0.132227 0
0.379688 0.131641 0
0.384375 0.263281 0
0.320312 0.262109 0
0.25625 0.260937 0
0.382031 0.197461 0
0.318359 0.196582 0
0.254687 0.195703 0
[...]
POINT_DATA 34560
VECTORS v double
1.23197 -0.246764 0
1.21944 -0.224897 0
1.20757 -0.205401 0
1.19784 -0.231993 0
1.1835 -0.213281 0
1.17054 -0.195599 0
1.16077 -0.217531 0
1.14534 -0.20074 0
1.13087 -0.184749 0
1.20757 -0.205401 0
1.19796 -0.186667 0
1.18903 -0.169753 0
1.17054 -0.195599 0
1.15913 -0.178788 0
1.14912 -0.163103 0
1.13087 -0.184749 0
1.11815 -0.169449 0
1.10653 -0.154944 0
1.16077 -0.217531 0
1.14534 -0.20074 0
1.13087 -0.184749 0
1.11786 -0.199135 0
1.10109 -0.184758 0
1.08538 -0.170917 0
1.06804 -0.182237 0
1.05074 -0.169846 0
1.0344 -0.157748 0
1.13087 -0.184749 0
1.11815 -0.169449 0
1.10653 -0.154944 0
1.08538 -0.170917 0
1.07142 -0.157511 0
1.05863 -0.144662 0
1.0344 -0.157748 0
1.01981 -0.145893 0
1.00629 -0.134399 0
1.18903 -0.169753 0
1.18141 -0.153517 0
1.17446 -0.138537 0
1.14912 -0.163103 0
1.13988 -0.148061 0
1.13201 -0.133951 0
1.10653 -0.154944 0
1.09607 -0.141025 0
1.08677 -0.127769 0
1.17446 -0.138537 0
1.16793 -0.124068 0
1.16198 -0.110406 0
1.13201 -0.133951 0
1.12408 -0.12021 0
1.11736 -0.107151 0
1.08677 -0.127769 0
1.07775 -0.114893 0
1.06986 -0.102481 0
1.10653 -0.154944 0
1.09607 -0.141025 0
1.08677 -0.127769 0
1.05863 -0.144662 0
1.04707 -0.132141 0
1.03673 -0.12016 0
1.00629 -0.134399 0
0.994047 -0.123121 0
0.982966 -0.112217 0
1.08677 -0.127769 0
1.07775 -0.114893 0
1.06986 -0.102481 0
1.03673 -0.12016 0
1.02686 -0.108369 0
1.01813 -0.0969062 0
0.982966 -0.112217 0
0.972478 -0.101409 0
0.963129 -0.0908311 0
1.06804 -0.182237 0
1.05074 -0.169846 0
1.0344 -0.157748 0
1.01332 -0.164352 0
0.995698 -0.153814 0
0.978946 -0.143402 0
0.954177 -0.147367 0
0.936416 -0.13836 0
0.919401 -0.129388 0
1.0344 -0.157748 0
1.01981 -0.145893 0
1.00629 -0.134399 0
0.978946 -0.143402 0
0.963835 -0.133085 0
0.949742 -0.123009 0
0.919401 -0.129388 0
0.903944 -0.120436 0
0.889425 -0.111624 0
0.954177 -0.147367 0
0.936416 -0.13836 0
0.919401 -0.129388 0
0.890281 -0.129133 0
0.872472 -0.12164 0
0.855368 -0.114135 0
0.821643 -0.112107 0
0.804094 -0.105879 0
0.787148 -0.099611 0
0.919401 -0.129388 0
0.903944 -0.120436 0
0.889425 -0.111624 0
0.855368 -0.114135 0
0.839701 -0.106589 0
0.824935 -0.0991176 0
0.787148 -0.099611 0
0.771511 -0.0932779 0
0.756692 -0.0869807 0
1.00629 -0.134399 0
0.994047 -0.123121 0
0.982966 -0.112217 0
0.949742 -0.123009 0
0.936932 -0.113025 0
0.925235 -0.103301 0
0.889425 -0.111624 0
0.876195 -0.102832 0
0.864033 -0.094212 0
0.982966 -0.112217 0
0.972478 -0.101409 0
0.963129 -0.0908311 0
0.925235 -0.103301 0
0.914253 -0.0935908 0
0.904385 -0.0840242 0
0.864033 -0.094212 0
0.852675 -0.0855484 0
0.84241 -0.0769583 0
0.889425 -0.111624 0
0.876195 -0.102832 0
0.864033 -0.094212 0
0.824935 -0.0991176 0
0.811421 -0.0915979 0
0.798948 -0.0841786 0
0.756692 -0.0869807 0
0.743063 -0.0806067 0
0.730423 -0.0742894 0
0.864033 -0.094212 0
0.852675 -0.0855484 0
0.84241 -0.0769583 0
0.798948 -0.0841786 0
0.787329 -0.0766548 0
0.776795 -0.0691455 0
0.730423 -0.0742894 0
0.718664 -0.0678402 0
0.707967 -0.0613632 0
1.16198 -0.110406 0
1.15634 -0.0969747 0
1.15125 -0.0839008 0
1.11736 -0.107151 0
1.11062 -0.0942198 0
1.10499 -0.0816169 0
1.06986 -0.102481 0
1.06227 -0.0902046 0
1.05581 -0.0781524 0
1.15125 -0.0839008 0
1.14604 -0.070762 0
1.14133 -0.0576088 0
1.10499 -0.0816169 0
1.09892 -0.0688534 0
1.09385 -0.0561128 0
1.05581 -0.0781524 0
1.0491 -0.0659789 0
1.04346 -0.0537438 0
1.06986 -0.102481 0
1.06227 -0.0902046 0
1.05581 -0.0781524 0
1.01813 -0.0969062 0
1.0099 -0.0854567 0
1.0028 -0.074193 0
0.963129 -0.0908311 0
0.954376 -0.0802233 0
0.946767 -0.0697241 0
1.05581 -0.0781524 0
1.0491 -0.0659789 0
1.04346 -0.0537438 0
1.0028 -0.074193 0
0.995688 -0.0627514 0
0.989635 -0.0511786 0
0.946767 -0.0697241 0
0.939303 -0.0590157 0
0.932929 -0.0481621 0
1.14133 -0.0576088 0
1.13677 -0.0440257 0
1.13276 -0.0300183 0
1.09385 -0.0561128 0
1.08876 -0.0429127 0
1.08465 -0.0293157 0
1.04346 -0.0537438 0
1.038 -0.0410751 0
1.03361 -0.0280299 0
1.13276 -0.0300183 0
1.1286 -0.0153128 0
1.125 0 0
1.08465 -0.0293157 0
1.0802 -0.0149646 0
1.07666 0 0
1.03361 -0.0280299 0
1.02898 -0.0143042 0
1.02539 0 0
1.04346 -0.0537438 0
1.038 -0.0410751 0
1.03361 -0.0280299 0
0.989635 -0.0511786 0
0.983962 -0.0391534 0
0.979384 -0.0267792 0
0.932929 -0.0481621 0
0.927039 -0.0368778 0
0.922282 -0.0252322 0
1.03361 -0.0280299 0
1.02898 -0.0143042 0
1.02539 0 0
0.979384 -0.0267792 0
0.974762 -0.0137193 0
0.971191 0 0
0.922282 -0.0252322 0
0.917616 -0.0129186 0
0.914062 0 0
0.963129 -0.0908311 0
0.954376 -0.0802233 0
0.946767 -0.0697241 0
0.904385 -0.0840242 0
0.895231 -0.0743613 0
0.887212 -0.0647411 0
0.84241 -0.0769583 0
0.832946 -0.0682334 0
0.824616 -0.0595035 0
0.946767 -0.0697241 0
0.939303 -0.0590157 0
0.932929 -0.0481621 0
0.887212 -0.0647411 0
0.8795 -0.0548884 0
0.872892 -0.044865 0
0.824616 -0.0595035 0
0.816721 -0.0505271 0
0.809936 -0.0413586 0
0.84241 -0.0769583 0
0.832946 -0.0682334 0
0.824616 -0.0595035 0
0.776795 -0.0691455 0
0.767124 -0.0614548 0
0.758592 -0.0537117 0
0.707967 -0.0613632 0
0.698174 -0.0546814 0
0.689516 -0.0479132 0
0.824616 -0.0595035 0
0.816721 -0.0505271 0
0.809936 -0.0413586 0
0.758592 -0.0537117 0
0.750589 -0.0456968 0
0.743715 -0.0374716 0
0.689516 -0.0479132 0
0.681469 -0.0408667 0
0.67456 -0.0335952 0
0.932929 -0.0481621 0
0.927039 -0.0368778 0
0.922282 -0.0252322 0
0.872892 -0.044865 0
0.866886 -0.0344062 0
0.862042 -0.0235766 0
0.809936 -0.0413586 0
0.803844 -0.0317687 0
0.798937 -0.0218097 0
0.922282 -0.0252322 0
0.917616 -0.0129186 0
0.914062 0 0
0.862042 -0.0235766 0
0.857447 -0.0120911 0
0.854004 0 0
0.798937 -0.0218097 0
0.794383 -0.0112121 0
0.791016 0 0
0.809936 -0.0413586 0
0.803844 -0.0317687 0
0.798937 -0.0218097 0
0.743715 -0.0374716 0
0.737609 -0.0288313 0
0.732719 -0.0198252 0
0.67456 -0.0335952 0
0.668474 -0.0259259 0
0.663622 -0.0178972 0
0.798937 -0.0218097 0
0.794383 -0.0112121 0
0.791016 0 0
0.732719 -0.0198252 0
0.728293 -0.0102019 0
0.725098 0 0
0.663622 -0.0178972 0
0.659307 -0.00926503 0
0.65625 0 0
0.821643 -0.112107 0
0.804094 -0.105879 0
0.787148 -0.099611 0
0.748829 -0.0945714 0
0.731608 -0.0894672 0
0.714928 -0.0843298 0
0.671396 -0.0780781 0
0.6547 -0.0739552 0
0.638482 -0.0698114 0
0.787148 -0.099611 0
0.771511 -0.0932779 0
0.756692 -0.0869807 0
0.714928 -0.0843298 0
0.699411 -0.0791395 0
0.684651 -0.0739821 0
0.638482 -0.0698114 0
0.623303 -0.0656352 0
0.608809 -0.0614999 0
0.671396 -0.0780781 0
0.6547 -0.0739552 0
0.638482 -0.0698114 0
0.589478 -0.0614039 0
0.573377 -0.058176 0
0.55775 -0.0549435 0
0.502234 -0.0457922 0
0.486918 -0.0434051 0
0.472078 -0.0410187 0
0.638482 -0.0698114 0
0.623303 -0.0656352 0
0.608809 -0.0614999 0
0.55775 -0.0549435 0
0.543055 -0.0516979 0
0.529008 -0.0485041 0
0.472078 -0.0410187 0
0.458102 -0.0386297 0
0.444752 -0.0362967 0
0.756692 -0.0869807 0
0.743063 -0.0806067 0
0.730423 -0.0742894 0
0.684651 -0.0739821 0
0.670998 -0.0687509 0
0.658289 -0.0635605 0
0.608809 -0.0614999 0
0.595322 -0.0573096 0
0.582711 -0.0531626 0
0.730423 -0.0742894 0
0.718664 -0.0678402 0
0.707967 -0.0613632 0
0.658289 -0.0635605 0
0.646466 -0.0582278 0
0.635686 -0.0528427 0
0.582711 -0.0531626 0
0.570957 -0.0488842 0
0.560207 -0.0445459 0
0.608809 -0.0614999 0
0.595322 -0.0573096 0
0.582711 -0.0531626 0
0.529008 -0.0485041 0
0.515856 -0.0452802 0
0.50352 -0.0421168 0
0.444752 -0.0362967 0
0.432201 -0.0339554 0
0.420403 -0.0316853 0
0.582711 -0.0531626 0
0.570957 -0.0488842 0
0.560207 -0.0445459 0
0.50352 -0.0421168 0
0.491972 -0.0388547 0
0.481374 -0.0355486 0
0.420403 -0.0316853 0
0.409313 -0.0293541 0
0.399094 -0.0270042 0
0.502234 -0.0457922 0
0.486918 -0.0434051 0
0.472078 -0.0410187 0
0.408936 -0.0303566 0
0.394625 -0.0287789 0
0.380828 -0.0272111 0
0.304597 -0.0164115 0
0.29222 -0.0156118 0
0.280302 -0.0148174 0
0.472078 -0.0410187 0
0.458102 -0.0386297 0
0.444752 -0.0362967 0
0.380828 -0.0272111 0
0.367829 -0.0256419 0
0.355461 -0.024122 0
0.280302 -0.0148174 0
0.26906 -0.0140127 0
0.258378 -0.0132371 0
0.304597 -0.0164115 0
0.29222 -0.0156118 0
0.280302 -0.0148174 0
0.179794 -0.00501146 0
0.171107 -0.00475295 0
0.162742 -0.00451041 0
0 0 0
0 0 0
0 0 0
0.280302 -0.0148174 0
0.26906 -0.0140127 0
0.258378 -0.0132371 0
0.162742 -0.00451041 0
0.154787 -0.00426422 0
0.147241 -0.00404391 0
0 0 0
0 0 0
0 0 0
0.444752 -0.0362967 0
0.432201 -0.0339554 0
0.420403 -0.0316853 0
0.355461 -0.024122 0
0.343802 -0.0225933 0
0.332858 -0.021128 0
0.258378 -0.0132371 0
0.248276 -0.01244 0
0.238789 -0.0116846 0
0.420403 -0.0316853 0
0.409313 -0.0293541 0
0.399094 -0.0270042 0
0.332858 -0.021128 0
0.322523 -0.0196187 0
0.312978 -0.0181081 0
0.238789 -0.0116846 0
0.229799 -0.0108982 0
0.221471 -0.0101202 0
0.258378 -0.0132371 0
0.248276 -0.01244 0
0.238789 -0.0116846 0
0.147241 -0.00404391 0
0.140037 -0.00379828 0
0.133291 -0.00358124 0
0 0 0
0 0 0
0 0 0
0.238789 -0.0116846 0
0.229799 -0.0108982 0
0.221471 -0.0101202 0
0.133291 -0.00358124 0
0.126839 -0.00333388 0
0.120897 -0.00310403 0
0 0 0
0 0 0
0 0 0
0.707967 -0.0613632 0
0.698174 -0.0546814 0
0.689516 -0.0479132 0
0.635686 -0.0528427 0
0.625837 -0.0472338 0
0.617126 -0.0415106 0
0.560207 -0.0445459 0
0.550384 -0.0399815 0
0.541687 -0.0352903 0
0.689516 -0.0479132 0
0.681469 -0.0408667 0
0.67456 -0.0335952 0
0.617126 -0.0415106 0
0.60909 -0.0354955 0
0.602205 -0.0292426 0
0.541687 -0.0352903 0
0.533715 -0.0303071 0
0.526904 -0.0250777 0
0.560207 -0.0445459 0
0.550384 -0.0399815 0
0.541687 -0.0352903 0
0.481374 -0.0355486 0
0.471657 -0.0320377 0
0.463042 -0.0284067 0
0.399094 -0.0270042 0
0.389662 -0.0244913 0
0.381263 -0.0218801 0
0.541687 -0.0352903 0
0.533715 -0.0303071 0
0.526904 -0.0250777 0
0.463042 -0.0284067 0
0.45518 -0.0244944 0
0.448483 -0.0203333 0
0.381263 -0.0218801 0
0.373603 -0.0190146 0
0.367087 -0.0159162 0
0.67456 -0.0335952 0
0.668474 -0.0259259 0
0.663622 -0.0178972 0
0.602205 -0.0292426 0
0.596189 -0.022606 0
0.591432 -0.0156264 0
0.526904 -0.0250777 0
0.520992 -0.0194842 0
0.516356 -0.0135651 0
0.663622 -0.0178972 0
0.659307 -0.00926503 0
0.65625 0 0
0.591432 -0.0156264 0
0.5873 -0.00808629 0
0.584473 0 0
0.516356 -0.0135651 0
0.512398 -0.00710904 0
0.509766 0 0
0.526904 -0.0250777 0
0.520992 -0.0194842 0
0.516356 -0.0135651 0
0.448483 -0.0203333 0
0.442702 -0.015826 0
0.438216 -0.0110268 0
0.367087 -0.0159162 0
0.361482 -0.0125017 0
0.357176 -0.0088227 0
0.516356 -0.0135651 0
0.512398 -0.00710904 0
0.509766 0 0
0.438216 -0.0110268 0
0.434483 -0.00576103 0
0.432129 0 0
0.357176 -0.0088227 0
0.353673 -0.00473337 0
0.351562 0 0
0.399094 -0.0270042 0
0.389662 -0.0244913 0
0.381263 -0.0218801 0
0.312978 -0.0181081 0
0.304082 -0.0164784 0
0.296116 -0.0147915 0
0.221471 -0.0101202 0
0.213648 -0.0092737 0
0.206593 -0.00840879 0
0.381263 -0.0218801 0
0.373603 -0.0190146 0
0.367087 -0.0159162 0
0.296116 -0.0147915 0
0.288806 -0.0129145 0
0.282571 -0.0108543 0
0.206593 -0.00840879 0
0.200077 -0.00743913 0
0.194488 -0.00636927 0
0.221471 -0.0101202 0
0.213648 -0.0092737 0
0.206593 -0.00840879 0
0.120897 -0.00310403 0
0.115246 -0.00283343 0
0.1102 -0.00257006 0
0 0 0
0 0 0
0 0 0
0.206593 -0.00840879 0
0.200077 -0.00743913 0
0.194488 -0.00636927 0
0.1102 -0.00257006 0
0.10546 -0.00225376 0
0.101437 -0.00191705 0
0 0 0
0 0 0
0 0 0
0.367087 -0.0159162 0
0.361482 -0.0125017 0
0.357176 -0.0088227 0
0.282571 -0.0108543 0
0.277196 -0.00853047 0
0.273108 -0.00600189 0
0.194488 -0.00636927 0
0.189649 -0.00513308 0
0.18598 -0.00374785 0
0.357176 -0.0088227 0
0.353673 -0.00473337 0
0.351562 0 0
0.273108 -0.00600189 0
0.269869 -0.00316259 0
0.268066 0 0
0.18598 -0.00374785 0
0.183138 -0.00214725 0
0.181641 0 0
0.194488 -0.00636927 0
0.189649 -0.00513308 0
0.18598 -0.00374785 0
0.101437 -0.00191705 0
0.0978662 -0.00152149 0
0.095273 -0.00107511 0
0 0 0
0 0 0
0 0 0
0.18598 -0.00374785 0
0.183138 -0.00214725 0
0.181641 0 0
0.095273 -0.00107511 0
0.0931969 -0.000524884 0
0.0922852 0 0
0 0 0
0 0 0
0 0 0
1.66606 -0.286398 0
1.63599 -0.314976 0
1.5998 -0.33992 0
1.589 -0.24244 0
1.56066 -0.269705 0
1.52922 -0.292564 0
1.50957 -0.209096 0
1.48771 -0.23435 0
1.46218 -0.255784 0
1.5998 -0.33992 0
1.56396 -0.35667 0
1.52351 -0.369171 0
1.52922 -0.292564 0
1.49644 -0.310013 0
1.46142 -0.322652 0
1.46218 -0.255784 0
1.43586 -0.272929 0
1.40674 -0.285731 0
1.50957 -0.209096 0
1.48771 -0.23435 0
1.46218 -0.255784 0
1.44519 -0.182857 0
1.42624 -0.203705 0
1.40431 -0.221697 0
1.3665 -0.155499 0
1.34942 -0.173994 0
1.32972 -0.190084 0
1.46218 -0.255784 0
1.43586 -0.272929 0
1.40674 -0.285731 0
1.40431 -0.221697 0
1.38091 -0.236216 0
1.35508 -0.247455 0
1.32972 -0.190084 0
1.30889 -0.203488 0
1.28597 -0.214131 0
1.52351 -0.369171 0
1.48745 -0.37434 0
1.44844 -0.375014 0
1.46142 -0.322652 0
1.42888 -0.329871 0
1.39522 -0.33321 0
1.40674 -0.285731 0
1.3797 -0.29426 0
1.35083 -0.298793 0
1.44844 -0.375014 0
1.41534 -0.370697 0
1.38057 -0.363143 0
1.39522 -0.33321 0
1.36532 -0.3322 0
1.33511 -0.328035 0
1.35083 -0.298793 0
1.32491 -0.299639 0
1.29799 -0.297207 0
1.40674 -0.285731 0
1.3797 -0.29426 0
1.35083 -0.298793 0
1.35508 -0.247455 0
1.3302 -0.25518 0
1.30364 -0.259827 0
1.28597 -0.214131 0
1.26386 -0.221962 0
1.24038 -0.227195 0
1.35083 -0.298793 0
1.32491 -0.299639 0
1.29799 -0.297207 0
1.30364 -0.259827 0
1.27913 -0.261501 0
1.25367 -0.260587 0
1.24038 -0.227195 0
1.2185 -0.229898 0
1.19582 -0.230319 0
1.3665 -0.155499 0
1.34942 -0.173994 0
1.32972 -0.190084 0
1.287 -0.136092 0
1.27248 -0.152117 0
1.25559 -0.166179 0
1.21184 -0.116478 0
1.19863 -0.130631 0
1.1833 -0.143143 0
1.32972 -0.190084 0
1.30889 -0.203488 0
1.28597 -0.214131 0
1.25559 -0.166179 0
1.2377 -0.177955 0
1.21781 -0.187428 0
1.1833 -0.143143 0
1.16699 -0.153714 0
1.14888 -0.16234 0
1.21184 -0.116478 0
1.19863 -0.130631 0
1.1833 -0.143143 0
1.13396 -0.0990687 0
1.12191 -0.111193 0
1.10786 -0.121943 0
1.05302 -0.0822409 0
1.0418 -0.0927668 0
1.02874 -0.10219 0
1.1833 -0.143143 0
1.16699 -0.153714 0
1.14888 -0.16234 0
1.10786 -0.121943 0
1.09295 -0.131106 0
1.07634 -0.138662 0
1.02874 -0.10219 0
1.01493 -0.110308 0
0.999551 -0.117088 0
1.28597 -0.214131 0
1.26386 -0.221962 0
1.24038 -0.227195 0
1.21781 -0.187428 0
1.19847 -0.194504 0
1.17764 -0.199374 0
1.14888 -0.16234 0
1.13104 -0.168925 0
1.11186 -0.173636 0
1.24038 -0.227195 0
1.2185 -0.229898 0
1.19582 -0.230319 0
1.17764 -0.199374 0
1.15798 -0.202095 0
1.13734 -0.202839 0
1.11186 -0.173636 0
1.09354 -0.176495 0
1.07433 -0.177658 0
1.14888 -0.16234 0
1.13104 -0.168925 0
1.11186 -0.173636 0
1.07634 -0.138662 0
1.05993 -0.144553 0
1.04223 -0.148867 0
0.999551 -0.117088 0
0.984302 -0.12246 0
0.96784 -0.126497 0
1.11186 -0.173636 0
1.09354 -0.176495 0
1.07433 -0.177658 0
1.04223 -0.148867 0
1.02522 -0.151646 0
1.00732 -0.152967 0
0.96784 -0.126497 0
0.951919 -0.129213 0
0.93514 -0.130671 0
1.38057 -0.363143 0
1.35321 -0.352666 0
1.32543 -0.339466 0
1.33511 -0.328035 0
1.31031 -0.320596 0
1.28596 -0.311378 0
1.29799 -0.297207 0
1.27525 -0.292145 0
1.25232 -0.284845 0
1.32543 -0.339466 0
1.30379 -0.325224 0
1.28244 -0.309768 0
1.28596 -0.311378 0
1.26593 -0.30031 0
1.24672 -0.287972 0
1.25232 -0.284845 0
1.23284 -0.275791 0
1.21369 -0.265313 0
1.29799 -0.297207 0
1.27525 -0.292145 0
1.25232 -0.284845 0
1.25367 -0.260587 0
1.23161 -0.257392 0
1.20934 -0.252279 0
1.19582 -0.230319 0
1.17586 -0.22868 0
1.15574 -0.225327 0
1.25232 -0.284845 0
1.23284 -0.275791 0
1.21369 -0.265313 0
1.20934 -0.252279 0
1.19017 -0.245662 0
1.17132 -0.237764 0
1.15574 -0.225327 0
1.13802 -0.220489 0
1.1205 -0.21439 0
1.28244 -0.309768 0
1.26691 -0.294258 0
1.25243 -0.277833 0
1.24672 -0.287972 0
1.23199 -0.274529 0
1.21838 -0.260654 0
1.21369 -0.265313 0
1.19825 -0.253977 0
1.18373 -0.24199 0
1.25243 -0.277833 0
1.24179 -0.262115 0
1.23197 -0.246764 0
1.21838 -0.260654 0
1.2075 -0.246433 0
1.19784 -0.231993 0
1.18373 -0.24199 0
1.17167 -0.22975 0
1.16077 -0.217531 0
1.21369 -0.265313 0
1.19825 -0.253977 0
1.18373 -0.24199 0
1.17132 -0.237764 0
1.15598 -0.228975 0
1.14141 -0.219456 0
1.1205 -0.21439 0
1.1058 -0.207308 0
1.09172 -0.19947 0
1.18373 -0.24199 0
1.17167 -0.22975 0
1.16077 -0.217531 0
1.14141 -0.219456 0
1.12917 -0.209491 0
1.11786 -0.199135 0
1.09172 -0.19947 0
1.07947 -0.19106 0
1.06804 -0.182237 0
1.19582 -0.230319 0
1.17586 -0.22868 0
1.15574 -0.225327 0
1.13734 -0.202839 0
1.11885 -0.201837 0
1.09993 -0.199339 0
1.07433 -0.177658 0
1.05684 -0.177297 0
1.03895 -0.175633 0
1.15574 -0.225327 0
1.13802 -0.220489 0
1.1205 -0.21439 0
1.09993 -0.199339 0
1.08297 -0.195588 0
1.06602 -0.190693 0
1.03895 -0.175633 0
1.0227 -0.172842 0
1.00644 -0.16904 0
1.07433 -0.177658 0
1.05684 -0.177297 0
1.03895 -0.175633 0
1.00732 -0.152967 0
0.990827 -0.153 0
0.973889 -0.151882 0
0.93514 -0.130671 0
0.919499 -0.131 0
0.903396 -0.130329 0
1.03895 -0.175633 0
1.0227 -0.172842 0
1.00644 -0.16904 0
0.973889 -0.151882 0
0.958283 -0.149791 0
0.942572 -0.146801 0
0.903396 -0.130329 0
0.888404 -0.128798 0
0.873265 -0.126472 0
1.1205 -0.21439 0
1.1058 -0.207308 0
1.09172 -0.19947 0
1.06602 -0.190693 0
1.05149 -0.184967 0
1.03742 -0.178579 0
1.00644 -0.16904 0
0.992226 -0.164466 0
0.978376 -0.159265 0
1.09172 -0.19947 0
1.07947 -0.19106 0
1.06804 -0.182237 0
1.03742 -0.178579 0
1.02503 -0.171705 0
1.01332 -0.164352 0
0.978376 -0.159265 0
0.965991 -0.153547 0
0.954177 -0.147367 0
1.00644 -0.16904 0
0.992226 -0.164466 0
0.978376 -0.159265 0
0.942572 -0.146801 0
0.928564 -0.143134 0
0.91481 -0.138895 0
0.873265 -0.126472 0
0.859572 -0.123546 0
0.846065 -0.12012 0
0.978376 -0.159265 0
0.965991 -0.153547 0
0.954177 -0.147367 0
0.91481 -0.138895 0
0.902308 -0.134216 0
0.890281 -0.129133 0
0.846065 -0.12012 0
0.833654 -0.1163 0
0.821643 -0.112107 0
1.05302 -0.0822409 0
1.0418 -0.0927668 0
1.02874 -0.10219 0
0.97191 -0.0682869 0
0.961236 -0.0771018 0
0.948876 -0.085022 0
0.889934 -0.0538299 0
0.87935 -0.0612962 0
0.867172 -0.0680426 0
1.02874 -0.10219 0
1.01493 -0.110308 0
0.999551 -0.117088 0
0.948876 -0.085022 0
0.935828 -0.0918696 0
0.9213 -0.0976116 0
0.867172 -0.0680426 0
0.854432 -0.073911 0
0.840308 -0.0788742 0
0.889934 -0.0538299 0
0.87935 -0.0612962 0
0.867172 -0.0680426 0
0.80586 -0.0407498 0
0.795363 -0.0468437 0
0.783343 -0.0523615 0
0.716864 -0.0276498 0
0.706524 -0.0325116 0
0.694627 -0.0369438 0
0.867172 -0.0680426 0
0.854432 -0.073911 0
0.840308 -0.0788742 0
0.783343 -0.0523615 0
0.770816 -0.057171 0
0.756953 -0.061255 0
0.694627 -0.0369438 0
0.682276 -0.04083 0
0.668588 -0.0441582 0
0.999551 -0.117088 0
0.984302 -0.12246 0
0.96784 -0.126497 0
0.9213 -0.0976116 0
0.906834 -0.102193 0
0.891213 -0.105667 0
0.840308 -0.0788742 0
0.82624 -0.0828804 0
0.811091 -0.0859705 0
0.96784 -0.126497 0
0.951919 -0.129213 0
0.93514 -0.130671 0
0.891213 -0.105667 0
0.876026 -0.108051 0
0.860017 -0.109378 0
0.811091 -0.0859705 0
0.79634 -0.0881507 0
0.780824 -0.0894439 0
0.840308 -0.0788742 0
0.82624 -0.0828804 0
0.811091 -0.0859705 0
0.756953 -0.061255 0
0.743123 -0.0645691 0
0.728241 -0.0671427 0
0.668588 -0.0441582 0
0.654915 -0.0468878 0
0.640199 -0.0490411 0
0.811091 -0.0859705 0
0.79634 -0.0881507 0
0.780824 -0.0894439 0
0.728241 -0.0671427 0
0.713718 -0.0689839 0
0.698448 -0.0701008 0
0.640199 -0.0490411 0
0.625819 -0.0506237 0
0.610714 -0.0516359 0
0.716864 -0.0276498 0
0.706524 -0.0325116 0
0.694627 -0.0369438 0
0.614585 -0.0159964 0
0.605412 -0.0195401 0
0.594547 -0.0227912 0
0.479369 -0.00568899 0
0.473082 -0.00784323 0
0.464929 -0.00985675 0
0.694627 -0.0369438 0
0.682276 -0.04083 0
0.668588 -0.0441582 0
0.594547 -0.0227912 0
0.583142 -0.0256506 0
0.570284 -0.0281171 0
0.464929 -0.00985675 0
0.456104 -0.0116578 0
0.445708 -0.013244 0
0.479369 -0.00568899 0
0.473082 -0.00784323 0
0.464929 -0.00985675 0
0.285101 -0.00128818 0
0.283542 -0.00200598 0
0.28019 -0.00268923 0
0 0 0
0 0 0
0 0 0
0.464929 -0.00985675 0
0.456104 -0.0116578 0
0.445708 -0.013244 0
0.28019 -0.00268923 0
0.276335 -0.00329495 0
0.270888 -0.00382796 0
0 0 0
0 0 0
0 0 0
0.668588 -0.0441582 0
0.654915 -0.0468878 0
0.640199 -0.0490411 0
0.570284 -0.0281171 0
0.557347 -0.030155 0
0.54328 -0.0317797 0
0.445708 -0.013244 0
0.435059 -0.0145911 0
0.423196 -0.0156999 0