# vtk DataFile Version 3.0
#This file was generated by the deal.II library on 2025/1/8 at 0:30:53
ASCII
DATASET UNSTRUCTURED_GRID

POINTS 34560 double
1.1 1.1 0
1.03125 1.09531 0
0.9625 1.09063 0
1.09375 1.03125 0
1.02539 1.02686 0
0.957031 1.02246 0
1.0875 0.9625 0
1.01953 0.958398 0
0.951563 0.954297 0
0.9625 1.09063 0
0.89375 1.08594 0
0.825 1.08125 0
0.957031 1.02246 0
0.888672 1.01807 0
0.820312 1.01367 0
0.951563 0.954297 0
0.883594 0.950195 0
0.815625 0.946094 0
1.0875 0.9625 0
1.01953 0.958398 0
0.951563 0.954297 0
1.08125 0.89375 0
1.01367 0.889941 0
0.946094 0.886133 0
1.075 0.825 0
1.00781 0.821484 0
0.940625 0.817969 0
0.951563 0.954297 0
0.883594 0.950195 0
0.815625 0.946094 0
0.946094 0.886133 0
0.878516 0.882324 0
0.810938 0.878516 0
0.940625 0.817969 0
0.873438 0.814453 0
0.80625 0.810937 0
0.825 1.08125 0
0.75625 1.07656 0
0.6875 1.07187 0
0.820312 1.01367 0
0.751953 1.00928 0
0.683594 1.00488 0
0.815625 0.946094 0
0.747656 0.941992 0
0.679688 0.937891 0
0.6875 1.07187 0
0.61875 1.06719 0
0.55 1.0625 0
0.683594 1.00488 0
0.615234 1.00049 0
0.546875 0.996094 0
0.679688 0.937891 0
0.611719 0.933789 0
0.54375 0.929688 0
0.815625 0.946094 0
0.747656 0.941992 0
0.679688 0.937891 0
0.810938 0.878516 0
0.743359 0.874707 0
0.675781 0.870898 0
0.80625 0.810937 0
0.739063 0.807422 0
0.671875 0.803906 0
0.679688 0.937891 0
0.611719 0.933789 0
0.54375 0.929688 0
0.675781 0.870898 0
0.608203 0.86709 0
0.540625 0.863281 0
0.671875 0.803906 0
0.604688 0.800391 0
0.5375 0.796875 0
1.075 0.825 0
1.00781 0.821484 0
0.940625 0.817969 0
1.06875 0.75625 0
1.00195 0.753027 0
0.935156 0.749805 0
1.0625 0.6875 0
0.996094 0.68457 0
0.929688 0.681641 0
0.940625 0.817969 0
0.873438 0.814453 0
0.80625 0.810937 0
0.935156 0.749805 0
0.868359 0.746582 0
0.801563 0.743359 0
0.929688 0.681641 0
0.863281 0.678711 0
0.796875 0.675781 0
1.0625 0.6875 0
0.996094 0.68457 0
0.929688 0.681641 0
1.05625 0.61875 0
0.990234 0.616113 0
0.924219 0.613477 0
1.05 0.55 0
0.984375 0.547656 0
0.91875 0.545313 0
0.929688 0.681641 0
0.863281 0.678711 0
0.796875 0.675781 0
0.924219 0.613477 0
0.858203 0.61084 0
0.792188 0.608203 0
0.91875 0.545313 0
0.853125 0.542969 0
0.7875 0.540625 0
0.80625 0.810937 0
0.739063 0.807422 0
0.671875 0.803906 0
0.801563 0.743359 0
0.734766 0.740137 0
0.667969 0.736914 0
0.796875 0.675781 0
0.730469 0.672852 0
0.664062 0.669922 0
0.671875 0.803906 0
0.604688 0.800391 0
0.5375 0.796875 0
0.667969 0.736914 0
0.601172 0.733691 0
0.534375 0.730469 0
0.664062 0.669922 0
0.597656 0.666992 0
0.53125 0.664062 0
0.796875 0.675781 0
0.730469 0.672852 0
0.664062 0.669922 0
0.792188 0.608203 0
0.726172 0.605566 0
0.660156 0.60293 0
0.7875 0.540625 0
0.721875 0.538281 0
0.65625 0.535937 0
0.664062 0.669922 0
0.597656 0.666992 0
0.53125 0.664062 0
0.660156 0.60293 0
0.594141 0.600293 0
0.528125 0.597656 0
0.65625 0.535937 0
0.590625 0.533594 0
0.525 0.53125 0
0.55 1.0625 0
0.48125 1.05781 0
0.4125 1.05313 0
0.546875 0.996094 0
0.478516 0.991699 0
0.410156 0.987305 0
0.54375 0.929688 0
0.475781 0.925586 0
0.407813 0.921484 0
0.4125 1.05313 0
0.34375 1.04844 0
0.275 1.04375 0
0.410156 0.987305 0
0.341797 0.98291 0
0.273438 0.978516 0
0.407813 0.921484 0
0.339844 0.917383 0
0.271875 0.913281 0
0.54375 0.929688 0
0.475781 0.925586 0
0.407813 0.921484 0
0.540625 0.863281 0
0.473047 0.859473 0
0.405469 0.855664 0
0.5375 0.796875 0
0.470313 0.793359 0
0.403125 0.789844 0
0.407813 0.921484 0
0.339844 0.917383 0
0.271875 0.913281 0
0.405469 0.855664 0
0.337891 0.851855 0
0.270313 0.848047 0
0.403125 0.789844 0
0.335938 0.786328 0
0.26875 0.782813 0
0.275 1.04375 0
0.20625 1.03906 0
0.1375 1.03437 0
0.273438 0.978516 0
0.205078 0.974121 0
0.136719 0.969727 0
0.271875 0.913281 0
0.203906 0.90918 0
0.135938 0.905078 0
0.1375 1.03437 0
0.06875 1.02969 0
0 1.025 0
0.136719 0.969727 0
0.0683594 0.965332 0
0 0.960937 0
0.135938 0.905078 0
0.0679688 0.900977 0
0 0.896875 0
0.271875 0.913281 0
0.203906 0.90918 0
0.135938 0.905078 0
0.270313 0.848047 0
0.202734 0.844238 0
0.135156 0.84043 0
0.26875 0.782813 0
0.201563 0.779297 0
0.134375 0.775781 0
0.135938 0.905078 0
0.0679688 0.900977 0
0 0.896875 0
0.135156 0.84043 0
0.0675781 0.836621 0
0 0.832812 0
0.134375 0.775781 0
0.0671875 0.772266 0
0 0.76875 0
0.5375 0.796875 0
0.470313 0.793359 0
0.403125 0.789844 0
0.534375 0.730469 0
0.467578 0.727246 0
0.400781 0.724023 0
0.53125 0.664062 0
0.464844 0.661133 0
0.398438 0.658203 0
0.403125 0.789844 0
0.335938 0.786328 0
0.26875 0.782813 0
0.400781 0.724023 0
0.333984 0.720801 0
0.267188 0.717578 0
0.398438 0.658203 0
0.332031 0.655273 0
0.265625 0.652344 0
0.53125 0.664062 0
0.464844 0.661133 0
0.398438 0.658203 0
0.528125 0.597656 0
0.462109 0.59502 0
0.396094 0.592383 0
0.525 0.53125 0
0.459375 0.528906 0
0.39375 0.526563 0
0.398438 0.658203 0
0.332031 0.655273 0
0.265625 0.652344 0
0.396094 0.592383 0
0.330078 0.589746 0
0.264062 0.587109 0
0.39375 0.526563 0
0.328125 0.524219 0
0.2625 0.521875 0
0.26875 0.782813 0
0.201563 0.779297 0
0.134375 0.775781 0
0.267188 0.717578 0
0.200391 0.714355 0
0.133594 0.711133 0
0.265625 0.652344 0
0.199219 0.649414 0
0.132812 0.646484 0
0.134375 0.775781 0
0.0671875 0.772266 0
0 0.76875 0
0.133594 0.711133 0
0.0667969 0.70791 0
0 0.704687 0
0.132812 0.646484 0
0.0664062 0.643555 0
0 0.640625 0
0.265625 0.652344 0
0.199219 0.649414 0
0.132812 0.646484 0
0.264062 0.587109 0
0.198047 0.584473 0
0.132031 0.581836 0
0.2625 0.521875 0
0.196875 0.519531 0
0.13125 0.517187 0
0.132812 0.646484 0
0.0664062 0.643555 0
0 0.640625 0
0.132031 0.581836 0
0.0660156 0.579199 0
0 0.576562 0
0.13125 0.517187 0
0.065625 0.514844 0
0 0.5125 0
1.05 0.55 0
0.984375 0.547656 0
0.91875 0.545313 0
1.04375 0.48125 0
0.978516 0.479199 0
0.913281 0.477148 0
1.0375 0.4125 0
0.972656 0.410742 0
0.907813 0.408984 0
0.91875 0.545313 0
0.853125 0.542969 0
0.7875 0.540625 0
0.913281 0.477148 0
0.848047 0.475098 0
0.782813 0.473047 0
0.907813 0.408984 0
0.842969 0.407227 0
0.778125 0.405469 0
1.0375 0.4125 0
0.972656 0.410742 0
0.907813 0.408984 0
1.03125 0.34375 0
0.966797 0.342285 0
0.902344 0.34082 0
1.025 0.275 0
0.960937 0.273828 0
0.896875 0.272656 0
0.907813 0.408984 0
0.842969 0.407227 0
0.778125 0.405469 0
0.902344 0.34082 0
0.837891 0.339355 0
0.773438 0.337891 0
0.896875 0.272656 0
0.832812 0.271484 0
0.76875 0.270313 0
0.7875 0.540625 0
0.721875 0.538281 0
0.65625 0.535937 0
0.782813 0.473047 0
0.717578 0.470996 0
0.652344 0.468945 0
0.778125 0.405469 0
0.713281 0.403711 0
0.648438 0.401953 0
0.65625 0.535937 0
0.590625 0.533594 0
0.525 0.53125 0
0.652344 0.468945 0
0.587109 0.466895 0
0.521875 0.464844 0
0.648438 0.401953 0
0.583594 0.400195 0
0.51875 0.398438 0
0.778125 0.405469 0
0.713281 0.403711 0
0.648438 0.401953 0
0.773438 0.337891 0
0.708984 0.336426 0
0.644531 0.334961 0
0.76875 0.270313 0
0.704687 0.269141 0
0.640625 0.267969 0
0.648438 0.401953 0
0.583594 0.400195 0
0.51875 0.398438 0
0.644531 0.334961 0
0.580078 0.333496 0
0.515625 0.332031 0
0.640625 0.267969 0
0.576562 0.266797 0
0.5125 0.265625 0
1.025 0.275 0
0.960937 0.273828 0
0.896875 0.272656 0
1.01875 0.20625 0
0.955078 0.205371 0
0.891406 0.204492 0
1.0125 0.1375 0
0.949219 0.136914 0
0.885937 0.136328 0
0.896875 0.272656 0
0.832812 0.271484 0
0.76875 0.270313 0
0.891406 0.204492 0
0.827734 0.203613 0
0.764062 0.202734 0
0.885937 0.136328 0
0.822656 0.135742 0
0.759375 0.135156 0
1.0125 0.1375 0
0.949219 0.136914 0
0.885937 0.136328 0
1.00625 0.06875 0
0.943359 0.068457 0
0.880469 0.0681641 0
1 0 0
0.9375 0 0
0.875 0 0
0.885937 0.136328 0
0.822656 0.135742 0
0.759375 0.135156 0
0.880469 0.0681641 0
0.817578 0.0678711 0
0.754687 0.0675781 0
0.875 0 0
0.8125 0 0
0.75 0 0
0.76875 0.270313 0
0.704687 0.269141 0
0.640625 0.267969 0
0.764062 0.202734 0
0.700391 0.201855 0
0.636719 0.200977 0
0.759375 0.135156 0
0.696094 0.13457 0
0.632812 0.133984 0
0.640625 0.267969 0
0.576562 0.266797 0
0.5125 0.265625 0
0.636719 0.200977 0
0.573047 0.200098 0
0.509375 0.199219 0
0.632812 0.133984 0
0.569531 0.133398 0
0.50625 0.132812 0
0.759375 0.135156 0
0.696094 0.13457 0
0.632812 0.133984 0
0.754687 0.0675781 0
0.691797 0.0672852 0
0.628906 0.0669922 0
0.75 0 0
0.6875 0 0
0.625 0 0
0.632812 0.133984 0
0.569531 0.133398 0
0.50625 0.132812 0
0.628906 0.0669922 0
0.566016 0.0666992 0
0.503125 0.0664062 0
0.625 0 0
0.5625 0 0
0.5 0 0
0.525 0.53125 0
0.459375 0.528906 0
0.39375 0.526563 0
0.521875 0.464844 0
0.456641 0.462793 0
0.391406 0.460742 0
0.51875 0.398438 0
0.453906 0.39668 0
0.389063 0.394922 0
0.39375 0.526563 0
0.328125 0.524219 0
0.2625 0.521875 0
0.391406 0.460742 0
0.326172 0.458691 0
0.260938 0.456641 0
0.389063 0.394922 0
0.324219 0.393164 0
0.259375 0.391406 0
0.51875 0.398438 0
0.453906 0.39668 0
0.389063 0.394922 0
0.515625 0.332031 0
0.451172 0.330566 0
0.386719 0.329102 0
0.5125 0.265625 0
0.448437 0.264453 0
0.384375 0.263281 0
0.389063 0.394922 0
0.324219 0.393164 0
0.259375 0.391406 0
0.386719 0.329102 0
0.322266 0.327637 0
0.257812 0.326172 0
0.384375 0.263281 0
0.320312 0.262109 0
0.25625 0.260937 0
0.2625 0.521875 0
0.196875 0.519531 0
0.13125 0.517187 0
0.260938 0.456641 0
0.195703 0.45459 0
0.130469 0.452539 0
0.259375 0.391406 0
0.194531 0.389648 0
0.129688 0.387891 0
0.13125 0.517187 0
0.065625 0.514844 0
0 0.5125 0
0.130469 0.452539 0
0.0652344 0.450488 0
0 0.448437 0
0.129688 0.387891 0
0.0648438 0.386133 0
0 0.384375 0
0.259375 0.391406 0
0.194531 0.389648 0
0.129688 0.387891 0
0.257812 0.326172 0
0.193359 0.324707 0
0.128906 0.323242 0
0.25625 0.260937 0
0.192187 0.259766 0
0.128125 0.258594 0
0.129688 0.387891 0
0.0648438 0.386133 0
0 0.384375 0
0.128906 0.323242 0
0.0644531 0.321777 0
0 0.320312 0
0.128125 0.258594 0
0.0640625 0.257422 0
0 0.25625 0
0.5125 0.265625 0
0.448437 0.264453 0
0.384375 0.263281 0
0.509375 0.199219 0
0.445703 0.19834 0
0.382031 0.197461 0
0.50625 0.132812 0
0.442969 0.132227 0
0.379688 0.131641 0
0.384375 0.263281 0
0.320312 0.262109 0
0.25625 0.260937 0
0.382031 0.197461 0
0.318359 0.196582 0
0.254687 0.195703 0
[...]
POINT_DATA 34560
VECTORS v double
1.28059 -0.347454 0
1.26136 -0.319411 0
1.24284 -0.292343 0
1.24511 -0.324716 0
1.22389 -0.300148 0
1.20452 -0.275803 0
1.20487 -0.302862 0
1.18296 -0.280913 0
1.16261 -0.258902 0
1.24284 -0.292343 0
1.22772 -0.265916 0
1.21343 -0.240343 0
1.20452 -0.275803 0
1.18754 -0.251797 0
1.17244 -0.228347 0
1.16261 -0.258902 0
1.14466 -0.237054 0
1.12843 -0.215425 0
1.20487 -0.302862 0
1.18296 -0.280913 0
1.16261 -0.258902 0
1.16008 -0.277681 0
1.13718 -0.258526 0
1.11586 -0.239158 0
1.10851 -0.25391 0
1.08518 -0.237269 0
1.0634 -0.220232 0
1.16261 -0.258902 0
1.14466 -0.237054 0
1.12843 -0.215425 0
1.11586 -0.239158 0
1.09687 -0.219721 0
1.07961 -0.200297 0
1.0634 -0.220232 0
1.04387 -0.202934 0
1.02606 -0.185483 0
1.21343 -0.240343 0
1.20141 -0.215627 0
1.19027 -0.191691 0
1.17244 -0.228347 0
1.15884 -0.205373 0
1.14702 -0.183057 0
1.12843 -0.215425 0
1.11382 -0.194137 0
1.10097 -0.173264 0
1.19027 -0.191691 0
1.18046 -0.16873 0
1.17149 -0.146515 0
1.14702 -0.183057 0
1.1359 -0.161327 0
1.12637 -0.140369 0
1.10097 -0.173264 0
1.08888 -0.152902 0
1.07847 -0.133111 0
1.12843 -0.215425 0
1.11382 -0.194137 0
1.10097 -0.173264 0
1.07961 -0.200297 0
1.06406 -0.180977 0
1.05025 -0.161924 0
1.02606 -0.185483 0
1.00995 -0.167982 0
0.995592 -0.15058 0
1.10097 -0.173264 0
1.08888 -0.152902 0
1.07847 -0.133111 0
1.05025 -0.161924 0
1.03743 -0.143179 0
1.02626 -0.124825 0
0.995592 -0.15058 0
0.982296 -0.133331 0
0.97067 -0.116353 0
1.10851 -0.25391 0
1.08518 -0.237269 0
1.0634 -0.220232 0
1.05166 -0.229705 0
1.02829 -0.215373 0
1.00636 -0.200512 0
0.990995 -0.206559 0
0.967688 -0.194209 0
0.945677 -0.181281 0
1.0634 -0.220232 0
1.04387 -0.202934 0
1.02606 -0.185483 0
1.00636 -0.200512 0
0.986542 -0.185268 0
0.968361 -0.169759 0
0.945677 -0.181281 0
0.925633 -0.167919 0
0.907142 -0.154222 0
0.990995 -0.206559 0
0.967688 -0.194209 0
0.945677 -0.181281 0
0.926137 -0.18216 0
0.902853 -0.171736 0
0.880824 -0.160744 0
0.856739 -0.159055 0
0.833768 -0.150353 0
0.811956 -0.141098 0
0.945677 -0.181281 0
0.925633 -0.167919 0
0.907142 -0.154222 0
0.880824 -0.160744 0
0.860616 -0.1493 0
0.84193 -0.137483 0
0.811956 -0.141098 0
0.791812 -0.131381 0
0.773111 -0.121287 0
1.02606 -0.185483 0
1.00995 -0.167982 0
0.995592 -0.15058 0
0.968361 -0.169759 0
0.951851 -0.154078 0
0.93705 -0.138369 0
0.907142 -0.154222 0
0.8903 -0.140272 0
0.875128 -0.126201 0
0.995592 -0.15058 0
0.982296 -0.133331 0
0.97067 -0.116353 0
0.93705 -0.138369 0
0.923398 -0.122703 0
0.911403 -0.107185 0
0.875128 -0.126201 0
0.861191 -0.112071 0
0.848903 -0.0979914 0
0.907142 -0.154222 0
0.8903 -0.140272 0
0.875128 -0.126201 0
0.84193 -0.137483 0
0.824835 -0.125352 0
0.809403 -0.113026 0
0.773111 -0.121287 0
0.755913 -0.110848 0
0.740335 -0.100176 0
0.875128 -0.126201 0
0.861191 -0.112071 0
0.848903 -0.0979914 0
0.809403 -0.113026 0
0.795251 -0.100544 0
0.782774 -0.0880216 0
0.740335 -0.100176 0
0.726058 -0.0892869 0
0.713459 -0.0782871 0
1.17149 -0.146515 0
1.16345 -0.125315 0
1.15618 -0.104852 0
1.12637 -0.140369 0
1.11731 -0.120126 0
1.10966 -0.100634 0
1.07847 -0.133111 0
1.06861 -0.113941 0
1.0603 -0.0954447 0
1.15618 -0.104852 0
1.14947 -0.085396 0
1.14345 -0.066676 0
1.10966 -0.100634 0
1.10216 -0.081924 0
1.09587 -0.06403 0
1.0603 -0.0954447 0
1.05218 -0.0776866 0
1.04543 -0.0606633 0
1.07847 -0.133111 0
1.06861 -0.113941 0
1.0603 -0.0954447 0
1.02626 -0.124825 0
1.01587 -0.106952 0
1.007 -0.0896663 0
0.97067 -0.116353 0
0.959901 -0.0997569 0
0.950663 -0.083638 0
1.0603 -0.0954447 0
1.05218 -0.0776866 0
1.04543 -0.0606633 0
1.007 -0.0896663 0
0.998556 -0.0730255 0
0.991466 -0.0570056 0
0.950663 -0.083638 0
0.941967 -0.0680842 0
0.934642 -0.053102 0
1.14345 -0.066676 0
1.13797 -0.0489032 0
1.13314 -0.0318136 0
1.09587 -0.06403 0
1.0899 -0.046957 0
1.085 -0.0305785 0
1.04543 -0.0606633 0
1.03908 -0.0444044 0
1.03397 -0.0288685 0
1.13314 -0.0318136 0
1.12876 -0.0155758 0
1.125 0 0
1.085 -0.0305785 0
1.08037 -0.014946 0
1.07666 0 0
1.03397 -0.0288685 0
1.02912 -0.0140874 0
1.02539 0 0
1.04543 -0.0606633 0
1.03908 -0.0444044 0
1.03397 -0.0288685 0
0.991466 -0.0570056 0
0.984961 -0.0417018 0
0.979691 -0.0271136 0
0.934642 -0.053102 0
0.927987 -0.038814 0
0.922567 -0.0251987 0
1.03397 -0.0288685 0
1.02912 -0.0140874 0
1.02539 0 0
0.979691 -0.0271136 0
0.97489 -0.0132525 0
0.971191 0 0
0.922567 -0.0251987 0
0.917751 -0.0122903 0
0.914062 0 0
0.97067 -0.116353 0
0.959901 -0.0997569 0
0.950663 -0.083638 0
0.911403 -0.107185 0
0.900341 -0.0919414 0
0.890811 -0.0770757 0
0.848903 -0.0979914 0
0.837632 -0.0840951 0
0.827896 -0.0704888 0
0.950663 -0.083638 0
0.941967 -0.0680842 0
0.934642 -0.053102 0
0.890811 -0.0770757 0
0.88195 -0.0627088 0
0.874474 -0.048854 0
0.827896 -0.0704888 0
0.818945 -0.0573165 0
0.811381 -0.0446002 0
0.848903 -0.0979914 0
0.837632 -0.0840951 0
0.827896 -0.0704888 0
0.782774 -0.0880216 0
0.771372 -0.0755731 0
0.761532 -0.0633195 0
0.713459 -0.0782871 0
0.701988 -0.067273 0
0.692103 -0.0563679 0
0.827896 -0.0704888 0
0.818945 -0.0573165 0
0.811381 -0.0446002 0
0.761532 -0.0633195 0
0.752558 -0.0514145 0
0.744995 -0.0399092 0
0.692103 -0.0563679 0
0.683169 -0.0457375 0
0.675665 -0.0354466 0
0.934642 -0.053102 0
0.927987 -0.038814 0
0.922567 -0.0251987 0
0.874474 -0.048854 0
0.867752 -0.0356496 0
0.862285 -0.023088 0
0.811381 -0.0446002 0
0.804637 -0.0325054 0
0.799146 -0.0210238 0
0.922567 -0.0251987 0
0.917751 -0.0122903 0
0.914062 0 0
0.862285 -0.023088 0
0.85757 -0.0112304 0
0.854004 0 0
0.799146 -0.0210238 0
0.794504 -0.010223 0
0.791016 0 0
0.811381 -0.0446002 0
0.804637 -0.0325054 0
0.799146 -0.0210238 0
0.744995 -0.0399092 0
0.738302 -0.0289851 0
0.732874 -0.0186517 0
0.675665 -0.0354466 0
0.669067 -0.0257015 0
0.663731 -0.0165153 0
0.799146 -0.0210238 0
0.794504 -0.010223 0
0.791016 0 0
0.732874 -0.0186517 0
0.728401 -0.00900646 0
0.725098 0 0
0.663731 -0.0165153 0
0.659409 -0.00798719 0
0.65625 0 0
0.856739 -0.159055 0
0.833768 -0.150353 0
0.811956 -0.141098 0
0.78383 -0.135553 0
0.761167 -0.128369 0
0.739595 -0.120679 0
0.707161 -0.112977 0
0.684882 -0.107205 0
0.663625 -0.100988 0
0.811956 -0.141098 0
0.791812 -0.131381 0
0.773111 -0.121287 0
0.739595 -0.120679 0
0.719527 -0.112569 0
0.70084 -0.104114 0
0.663625 -0.100988 0
0.643738 -0.0943918 0
0.625171 -0.0874926 0
0.707161 -0.112977 0
0.684882 -0.107205 0
0.663625 -0.100988 0
0.627021 -0.0899103 0
0.605123 -0.0854226 0
0.584213 -0.0805669 0
0.542149 -0.0677831 0
0.520868 -0.0645117 0
0.500516 -0.0609554 0
0.663625 -0.100988 0
0.643738 -0.0943918 0
0.625171 -0.0874926 0
0.584213 -0.0805669 0
0.564541 -0.0753902 0
0.546152 -0.0699644 0
0.500516 -0.0609554 0
0.48127 -0.0571341 0
0.463252 -0.0531218 0
0.773111 -0.121287 0
0.755913 -0.110848 0
0.740335 -0.100176 0
0.70084 -0.104114 0
0.683561 -0.0953392 0
0.667866 -0.0863309 0
0.625171 -0.0874926 0
0.607917 -0.0802992 0
0.592194 -0.0728936 0
0.740335 -0.100176 0
0.726058 -0.0892869 0
0.713459 -0.0782871 0
0.667866 -0.0863309 0
0.653466 -0.0770855 0
0.640754 -0.0676917 0
0.592194 -0.0728936 0
0.57774 -0.0652515 0
0.564964 -0.0574483 0
0.625171 -0.0874926 0
0.607917 -0.0802992 0
0.592194 -0.0728936 0
0.546152 -0.0699644 0
0.528976 -0.0642889 0
0.513296 -0.0584385 0
0.463252 -0.0531218 0
0.446346 -0.0489011 0
0.43088 -0.0445489 0
0.592194 -0.0728936 0
0.57774 -0.0652515 0
0.564964 -0.0574483 0
0.513296 -0.0584385 0
0.498824 -0.0523819 0
0.486007 -0.0461867 0
0.43088 -0.0445489 0
0.416551 -0.0400281 0
0.403828 -0.0354043 0
0.542149 -0.0677831 0
0.520868 -0.0645117 0
0.500516 -0.0609554 0
0.451773 -0.0456978 0
0.431295 -0.0434587 0
0.411723 -0.041036 0
0.346292 -0.0247788 0
0.327827 -0.0235883 0
0.310197 -0.0223069 0
0.500516 -0.0609554 0
0.48127 -0.0571341 0
0.463252 -0.0531218 0
0.411723 -0.041036 0
0.393114 -0.0384276 0
0.375704 -0.0357018 0
0.310197 -0.0223069 0
0.293395 -0.0209073 0
0.277702 -0.0194562 0
0.346292 -0.0247788 0
0.327827 -0.0235883 0
0.310197 -0.0223069 0
0.204364 -0.00770965 0
0.19122 -0.00728546 0
0.178881 -0.00686162 0
0 0 0
0 0 0
0 0 0
0.310197 -0.0223069 0
0.293395 -0.0209073 0
0.277702 -0.0194562 0
0.178881 -0.00686162 0
0.167044 -0.00637935 0
0.156201 -0.00591022 0
0 0 0
0 0 0
0 0 0
0.463252 -0.0531218 0
0.446346 -0.0489011 0
0.43088 -0.0445489 0
0.375704 -0.0357018 0
0.359291 -0.0328277 0
0.344282 -0.029878 0
0.277702 -0.0194562 0
0.262882 -0.0179085 0
0.249356 -0.0163354 0
0.43088 -0.0445489 0
0.416551 -0.0400281 0
0.403828 -0.0354043 0
0.344282 -0.029878 0
0.330321 -0.0268076 0
0.317917 -0.0236816 0
0.249356 -0.0163354 0
0.23676 -0.0146879 0
0.225582 -0.013023 0
0.277702 -0.0194562 0
0.262882 -0.0179085 0
0.249356 -0.0163354 0
0.156201 -0.00591022 0
0.145897 -0.00538644 0
0.136691 -0.00488111 0
0 0 0
0 0 0
0 0 0
0.249356 -0.0163354 0
0.23676 -0.0146879 0
0.225582 -0.013023 0
0.136691 -0.00488111 0
0.128072 -0.00433818 0
0.120589 -0.00380953 0
0 0 0
0 0 0
0 0 0
0.713459 -0.0782871 0
0.701988 -0.067273 0
0.692103 -0.0563679 0
0.640754 -0.0676917 0
0.629227 -0.0582098 0
0.61933 -0.0487518 0
0.564964 -0.0574483 0
0.553406 -0.0495028 0
0.543517 -0.041514 0
0.692103 -0.0563679 0
0.683169 -0.0457375 0
0.675665 -0.0354466 0
0.61933 -0.0487518 0
0.610471 -0.0394709 0
0.603082 -0.0304575 0
0.543517 -0.041514 0
0.534757 -0.0336096 0
0.527522 -0.0258949 0
0.564964 -0.0574483 0
0.553406 -0.0495028 0
0.543517 -0.041514 0
0.486007 -0.0461867 0
0.474413 -0.0398455 0
0.464517 -0.0334251 0
0.403828 -0.0354043 0
0.392299 -0.0306515 0
0.382457 -0.0258132 0
0.543517 -0.041514 0
0.534757 -0.0336096 0
0.527522 -0.0258949 0
0.464517 -0.0334251 0
0.455841 -0.0270068 0
0.448765 -0.0206886 0
0.382457 -0.0258132 0
0.373893 -0.0209175 0
0.366994 -0.0160498 0
0.675665 -0.0354466 0
0.669067 -0.0257015 0
0.663731 -0.0165153 0
0.603082 -0.0304575 0
0.596636 -0.0219371 0
0.591467 -0.0139513 0
0.527522 -0.0258949 0
0.521274 -0.0186114 0
0.516311 -0.0118135 0
0.663731 -0.0165153 0
0.659409 -0.00798719 0
0.65625 0 0
0.591467 -0.0139513 0
0.587383 -0.00664416 0
0.584473 0 0
0.516311 -0.0118135 0
0.512464 -0.00565554 0
0.509766 0 0
0.527522 -0.0258949 0
0.521274 -0.0186114 0
0.516311 -0.0118135 0
0.448765 -0.0206886 0
0.442748 -0.0147018 0
0.438051 -0.00914164 0
0.366994 -0.0160498 0
0.361243 -0.0114009 0
0.356861 -0.00707317 0
0.516311 -0.0118135 0
0.512464 -0.00565554 0
0.509766 0 0
0.438051 -0.00914164 0
0.434514 -0.00422369 0
0.432129 0 0
0.356861 -0.00707317 0
0.353657 -0.00331534 0
0.351562 0 0
0.403828 -0.0354043 0
0.392299 -0.0306515 0
0.382457 -0.0258132 0
0.317917 -0.0236816 0
0.30665 -0.020476 0
0.297025 -0.017217 0
0.225582 -0.013023 0
0.215436 -0.0113158 0
0.206775 -0.00959104 0
0.382457 -0.0258132 0
0.373893 -0.0209175 0
0.366994 -0.0160498 0
0.297025 -0.017217 0
0.288666 -0.0139038 0
0.281985 -0.0105901 0
0.206775 -0.00959104 0
0.199256 -0.00783301 0
0.193274 -0.00607049 0
0.225582 -0.013023 0
0.215436 -0.0113158 0
0.206775 -0.00959104 0
0.120589 -0.00380953 0
0.113768 -0.0032622 0
0.108087 -0.002723 0
0 0 0
0 0 0
0 0 0
0.206775 -0.00959104 0
0.199256 -0.00783301 0
0.193274 -0.00607049 0
0.108087 -0.002723 0
0.103126 -0.00216968 0
0.0992566 -0.00162779 0
0 0 0
0 0 0
0 0 0
0.366994 -0.0160498 0
0.361243 -0.0114009 0
0.356861 -0.00707317 0
0.281985 -0.0105901 0
0.276551 -0.00739898 0
0.272554 -0.00439874 0
0.193274 -0.00607049 0
0.188516 -0.00434246 0
0.185143 -0.00266721 0
0.356861 -0.00707317 0
0.353657 -0.00331534 0
0.351562 0 0
0.272554 -0.00439874 0
0.269764 -0.0018515 0
0.268066 0 0
0.185143 -0.00266721 0
0.182909 -0.00122847 0
0.181641 0 0
0.193274 -0.00607049 0
0.188516 -0.00434246 0
0.185143 -0.00266721 0
0.0992566 -0.00162779 0
0.0962102 -0.00111406 0
0.0941721 -0.000604029 0
0 0 0
0 0 0
0 0 0
0.185143 -0.00266721 0
0.182909 -0.00122847 0
0.181641 0 0
0.0941721 -0.000604029 0
0.0928876 -0.000155067 0
0.0922852 0 0
0 0 0
0 0 0
0 0 0
1.8245 -0.342338 0
1.78806 -0.380166 0
1.74426 -0.413037 0
1.74604 -0.28998 0
1.71077 -0.326115 0
1.6728 -0.356932 0
1.65657 -0.247486 0
1.6286 -0.281366 0
1.59639 -0.310712 0
1.74426 -0.413037 0
1.70187 -0.437342 0
1.65414 -0.456266 0
1.6728 -0.356932 0
1.63279 -0.381492 0
1.591 -0.400438 0
1.59639 -0.310712 0
1.56334 -0.334973 0
1.52732 -0.354223 0
1.65657 -0.247486 0
1.6286 -0.281366 0
1.59639 -0.310712 0
1.58747 -0.216043 0
1.56278 -0.245134 0
1.53496 -0.270827 0
1.50611 -0.181993 0
1.48354 -0.208414 0
1.45818 -0.231842 0
1.59639 -0.310712 0
1.56334 -0.334973 0
1.52732 -0.354223 0
1.53496 -0.270827 0
1.50529 -0.292228 0
1.47322 -0.309715 0
1.45818 -0.231842 0
1.43112 -0.251801 0
1.40195 -0.268374 0
1.65414 -0.456266 0
1.61135 -0.467336 0
1.56515 -0.472743 0
1.591 -0.400438 0
1.55104 -0.413224 0
1.51038 -0.421248 0
1.52732 -0.354223 0
1.49342 -0.368451 0
1.45779 -0.377914 0
1.56515 -0.472743 0
1.52535 -0.472687 0
1.48353 -0.468347 0
1.51038 -0.421248 0
1.47302 -0.424223 0
1.43573 -0.423257 0
1.45779 -0.377914 0
1.42504 -0.382985 0
1.39151 -0.384027 0
1.52732 -0.354223 0
1.49342 -0.368451 0
1.45779 -0.377914 0
1.47322 -0.309715 0
1.44186 -0.322853 0
1.40894 -0.332231 0
1.40195 -0.268374 0
1.3732 -0.281387 0
1.34319 -0.291161 0
1.45779 -0.377914 0
1.42504 -0.382985 0
1.39151 -0.384027 0
1.40894 -0.332231 0
1.37772 -0.337854 0
1.34572 -0.340144 0
1.34319 -0.291161 0
1.31439 -0.297703 0
1.28504 -0.301303 0
1.50611 -0.181993 0
1.48354 -0.208414 0
1.45818 -0.231842 0
1.42035 -0.156738 0
1.40066 -0.180431 0
1.37823 -0.201628 0
1.34207 -0.131742 0
1.32407 -0.153197 0
1.30355 -0.17254 0
1.45818 -0.231842 0
1.43112 -0.251801 0
1.40195 -0.268374 0
1.37823 -0.201628 0
1.35443 -0.219817 0
1.3285 -0.235116 0
1.30355 -0.17254 0
1.28164 -0.189263 0
1.25774 -0.203505 0
1.34207 -0.131742 0
1.32407 -0.153197 0
1.30355 -0.17254 0
1.26214 -0.109662 0
1.24579 -0.128545 0
1.22694 -0.145632 0
1.17857 -0.0883947 0
1.16356 -0.105061 0
1.14612 -0.120271 0
1.30355 -0.17254 0
1.28164 -0.189263 0
1.25774 -0.203505 0
1.22694 -0.145632 0
1.20669 -0.160526 0
1.18443 -0.173342 0
1.14612 -0.120271 0
1.12734 -0.133662 0
1.10661 -0.145316 0
1.40195 -0.268374 0
1.3732 -0.281387 0
1.34319 -0.291161 0
1.3285 -0.235116 0
1.30289 -0.247306 0
1.27582 -0.256687 0
1.25774 -0.203505 0
1.23384 -0.215025 0
1.20854 -0.224097 0
1.34319 -0.291161 0
1.31439 -0.297703 0
1.28504 -0.301303 0
1.27582 -0.256687 0
1.24971 -0.263231 0
1.22276 -0.267135 0
1.20854 -0.224097 0
1.18384 -0.230643 0
1.15831 -0.234868 0
1.25774 -0.203505 0
1.23384 -0.215025 0
1.20854 -0.224097 0
1.18443 -0.173342 0
1.16202 -0.183889 0
1.13819 -0.192352 0
1.10661 -0.145316 0
1.08561 -0.155047 0
1.06319 -0.16301 0
1.20854 -0.224097 0
1.18384 -0.230643 0
1.15831 -0.234868 0
1.13819 -0.192352 0
1.11478 -0.198685 0
1.09051 -0.20301 0
1.06319 -0.16301 0
1.04102 -0.169131 0
1.01795 -0.173509 0
1.48353 -0.468347 0
1.44923 -0.460378 0
1.41423 -0.448562 0
1.43573 -0.423257 0
1.40354 -0.418336 0
1.37211 -0.410737 0
1.39151 -0.384027 0
1.36217 -0.381678 0
1.33285 -0.376214 0
1.41423 -0.448562 0
1.38572 -0.435133 0
1.3573 -0.419433 0
1.37211 -0.410737 0
1.34503 -0.400592 0
1.31904 -0.388367 0
1.33285 -0.376214 0
1.30691 -0.368211 0
1.28148 -0.35793 0
1.39151 -0.384027 0
1.36217 -0.381678 0
1.33285 -0.376214 0
1.34572 -0.340144 0
1.31695 -0.339381 0
1.28814 -0.335938 0
1.28504 -0.301303 0
1.25829 -0.302169 0
1.23168 -0.300642 0
1.33285 -0.376214 0
1.30691 -0.368211 0
1.28148 -0.35793 0
1.28814 -0.335938 0
1.26231 -0.330289 0
1.23704 -0.32257 0
1.23168 -0.300642 0
1.20742 -0.296967 0
1.18373 -0.291314 0
1.3573 -0.419433 0
1.33496 -0.402972 0
1.31362 -0.38457 0
1.31904 -0.388367 0
1.29763 -0.374314 0
1.27757 -0.358862 0
1.28148 -0.35793 0
1.25981 -0.345967 0
1.23926 -0.332469 0
1.31362 -0.38457 0
1.2967 -0.366348 0
1.28059 -0.347454 0
1.27757 -0.358862 0
1.2606 -0.342319 0
1.24511 -0.324716 0
1.23926 -0.332469 0
1.22135 -0.318027 0
1.20487 -0.302862 0
1.28148 -0.35793 0
1.25981 -0.345967 0
1.23926 -0.332469 0
1.23704 -0.32257 0
1.21539 -0.313281 0
1.19481 -0.302508 0
1.18373 -0.291314 0
1.16293 -0.283993 0
1.14309 -0.275172 0
1.23926 -0.332469 0
1.22135 -0.318027 0
1.20487 -0.302862 0
1.19481 -0.302508 0
1.1768 -0.290668 0
1.16008 -0.277681 0
1.14309 -0.275172 0
1.12521 -0.265109 0
1.10851 -0.25391 0
1.28504 -0.301303 0
1.25829 -0.302169 0
1.23168 -0.300642 0
1.22276 -0.267135 0
1.19788 -0.2686 0
1.17278 -0.267896 0
1.15831 -0.234868 0
1.13437 -0.236916 0
1.1102 -0.237032 0
1.23168 -0.300642 0
1.20742 -0.296967 0
1.18373 -0.291314 0
1.17278 -0.267896 0
1.14957 -0.265274 0
1.12662 -0.260801 0
1.1102 -0.237032 0
1.08765 -0.235402 0
1.06533 -0.232119 0
1.15831 -0.234868 0
1.13437 -0.236916 0
1.1102 -0.237032 0
1.09051 -0.20301 0
1.06754 -0.205456 0
1.04428 -0.206168 0
1.01795 -0.173509 0
0.995892 -0.176223 0
0.973446 -0.177412 0
1.1102 -0.237032 0
1.08765 -0.235402 0
1.06533 -0.232119 0
1.04428 -0.206168 0
1.02236 -0.205326 0
1.00058 -0.202982 0
0.973446 -0.177412 0
0.952101 -0.177205 0
0.930814 -0.175651 0
1.18373 -0.291314 0
1.16293 -0.283993 0
1.14309 -0.275172 0
1.12662 -0.260801 0
1.10614 -0.254849 0
1.08639 -0.247557 0
1.06533 -0.232119 0
1.04517 -0.227479 0
1.02568 -0.221584 0
1.14309 -0.275172 0
1.12521 -0.265109 0
1.10851 -0.25391 0
1.08639 -0.247557 0
1.0685 -0.2392 0
1.05166 -0.229705 0
1.02568 -0.221584 0
1.00786 -0.214613 0
0.990995 -0.206559 0
1.06533 -0.232119 0
1.04517 -0.227479 0
1.02568 -0.221584 0
1.00058 -0.202982 0
0.980612 -0.19939 0
0.961197 -0.194619 0
0.930814 -0.175651 0
0.911071 -0.172965 0
0.891816 -0.169224 0
1.02568 -0.221584 0
1.00786 -0.214613 0
0.990995 -0.206559 0
0.961197 -0.194619 0
0.943234 -0.188874 0
0.926137 -0.18216 0
0.891816 -0.169224 0
0.873873 -0.164592 0
0.856739 -0.159055 0
1.17857 -0.0883947 0
1.16356 -0.105061 0
1.14612 -0.120271 0
1.09523 -0.0714011 0
1.0814 -0.0857093 0
1.06523 -0.0988213 0
1.01109 -0.0541276 0
0.998112 -0.0663436 0
0.982814 -0.077595 0
1.14612 -0.120271 0
1.12734 -0.133662 0
1.10661 -0.145316 0
1.06523 -0.0988213 0
1.0477 -0.110418 0
1.02823 -0.120563 0
0.982814 -0.077595 0
0.966195 -0.0876044 0
0.94764 -0.0964234 0
1.01109 -0.0541276 0
0.998112 -0.0663436 0
0.982814 -0.077595 0
0.923554 -0.0395364 0
0.911532 -0.0495537 0
0.897212 -0.0588035 0
0.830383 -0.0254549 0
0.819371 -0.0333647 0
0.805986 -0.04071 0
0.982814 -0.077595 0
0.966195 -0.0876044 0
0.94764 -0.0964234 0
0.897212 -0.0588035 0
0.881556 -0.0670618 0
0.863955 -0.0743697 0
0.805986 -0.04071 0
0.791278 -0.0473064 0
0.774575 -0.0531759 0
1.10661 -0.145316 0
1.08561 -0.155047 0
1.06319 -0.16301 0
1.02823 -0.120563 0
1.00834 -0.129095 0
0.987001 -0.136142 0
0.94764 -0.0964234 0
0.928568 -0.103916 0
0.908028 -0.11018 0
1.06319 -0.16301 0
1.04102 -0.169131 0
1.01795 -0.173509 0
0.987001 -0.136142 0
0.965733 -0.141638 0
0.943507 -0.14566 0
0.908028 -0.11018 0
0.887451 -0.115162 0
0.865887 -0.118912 0
0.94764 -0.0964234 0
0.928568 -0.103916 0
0.908028 -0.11018 0
0.863955 -0.0743697 0
0.845741 -0.080617 0
0.82602 -0.0858755 0
0.774575 -0.0531759 0
0.757194 -0.0582347 0
0.738255 -0.0625301 0
0.908028 -0.11018 0
0.887451 -0.115162 0
0.865887 -0.118912 0
0.82602 -0.0858755 0
0.806143 -0.090101 0
0.785216 -0.0933251 0
0.738255 -0.0625301 0
0.719084 -0.0660328 0
0.698813 -0.068752 0
0.830383 -0.0254549 0
0.819371 -0.0333647 0
0.805986 -0.04071 0
0.723481 -0.0142724 0
0.714585 -0.0199409 0
0.703143 -0.0252319 0
0.579548 -0.00469578 0
0.574145 -0.00800334 0
0.566058 -0.011129 0
0.805986 -0.04071 0
0.791278 -0.0473064 0
0.774575 -0.0531759 0
0.703143 -0.0252319 0
0.690218 -0.0300091 0
0.675133 -0.0342755 0
0.566058 -0.011129 0
0.556347 -0.0139876 0
0.544352 -0.0165669 0
0.579548 -0.00469578 0
0.574145 -0.00800334 0
0.566058 -0.011129 0
0.356449 -0.00125971 0
0.355078 -0.00234137 0
0.351425 -0.00336023 0
0 0 0
0 0 0
0 0 0
0.566058 -0.011129 0
0.556347 -0.0139876 0
0.544352 -0.0165669 0
0.351425 -0.00336023 0
0.34656 -0.0043011 0
0.339642 -0.00513688 0
0 0 0
0 0 0
0 0 0
0.774575 -0.0531759 0
0.757194 -0.0582347 0
0.738255 -0.0625301 0
0.675133 -0.0342755 0
0.659204 -0.0379735 0
0.641574 -0.0411278 0
0.544352 -0.0165669 0
0.53131 -0.0188394 0
0.516454 -0.0208006 0
0.738255 -0.0625301 0
0.719084 -0.0660328 0
0.698813 -0.068752 0
0.641574 -0.0411278 0
0.623575 -0.0437241 0