# vtk DataFile Version 3.0
#This file was generated by the deal.II library on 2025/1/7 at 21:14:15
ASCII
DATASET UNSTRUCTURED_GRID

POINTS 34560 double
1.1 1.1 0
1.03125 1.09531 0
0.9625 1.09063 0
1.09375 1.03125 0
1.02539 1.02686 0
0.957031 1.02246 0
1.0875 0.9625 0
1.01953 0.958398 0
0.951563 0.954297 0
0.9625 1.09063 0
0.89375 1.08594 0
0.825 1.08125 0
0.957031 1.02246 0
0.888672 1.01807 0
0.820312 1.01367 0
0.951563 0.954297 0
0.883594 0.950195 0
0.815625 0.946094 0
1.0875 0.9625 0
1.01953 0.958398 0
0.951563 0.954297 0
1.08125 0.89375 0
1.01367 0.889941 0
0.946094 0.886133 0
1.075 0.825 0
1.00781 0.821484 0
0.940625 0.817969 0
0.951563 0.954297 0
0.883594 0.950195 0
0.815625 0.946094 0
0.946094 0.886133 0
0.878516 0.882324 0
0.810938 0.878516 0
0.940625 0.817969 0
0.873438 0.814453 0
0.80625 0.810937 0
0.825 1.08125 0
0.75625 1.07656 0
0.6875 1.07187 0
0.820312 1.01367 0
0.751953 1.00928 0
0.683594 1.00488 0
0.815625 0.946094 0
0.747656 0.941992 0
0.679688 0.937891 0
0.6875 1.07187 0
0.61875 1.06719 0
0.55 1.0625 0
0.683594 1.00488 0
0.615234 1.00049 0
0.546875 0.996094 0
0.679688 0.937891 0
0.611719 0.933789 0
0.54375 0.929688 0
0.815625 0.946094 0
0.747656 0.941992 0
0.679688 0.937891 0
0.810938 0.878516 0
0.743359 0.874707 0
0.675781 0.870898 0
0.80625 0.810937 0
0.739063 0.807422 0
0.671875 0.803906 0
0.679688 0.937891 0
0.611719 0.933789 0
0.54375 0.929688 0
0.675781 0.870898 0
0.608203 0.86709 0
0.540625 0.863281 0
0.671875 0.803906 0
0.604688 0.800391 0
0.5375 0.796875 0
1.075 0.825 0
1.00781 0.821484 0
0.940625 0.817969 0
1.06875 0.75625 0
1.00195 0.753027 0
0.935156 0.749805 0
1.0625 0.6875 0
0.996094 0.68457 0
0.929688 0.681641 0
0.940625 0.817969 0
0.873438 0.814453 0
0.80625 0.810937 0
0.935156 0.749805 0
0.868359 0.746582 0
0.801563 0.743359 0
0.929688 0.681641 0
0.863281 0.678711 0
0.796875 0.675781 0
1.0625 0.6875 0
0.996094 0.68457 0
0.929688 0.681641 0
1.05625 0.61875 0
0.990234 0.616113 0
0.924219 0.613477 0
1.05 0.55 0
0.984375 0.547656 0
0.91875 0.545313 0
0.929688 0.681641 0
0.863281 0.678711 0
0.796875 0.675781 0
0.924219 0.613477 0
0.858203 0.61084 0
0.792188 0.608203 0
0.91875 0.545313 0
0.853125 0.542969 0
0.7875 0.540625 0
0.80625 0.810937 0
0.739063 0.807422 0
0.671875 0.803906 0
0.801563 0.743359 0
0.734766 0.740137 0
0.667969 0.736914 0
0.796875 0.675781 0
0.730469 0.672852 0
0.664062 0.669922 0
0.671875 0.803906 0
0.604688 0.800391 0
0.5375 0.796875 0
0.667969 0.736914 0
0.601172 0.733691 0
0.534375 0.730469 0
0.664062 0.669922 0
0.597656 0.666992 0
0.53125 0.664062 0
0.796875 0.675781 0
0.730469 0.672852 0
0.664062 0.669922 0
0.792188 0.608203 0
0.726172 0.605566 0
0.660156 0.60293 0
0.7875 0.540625 0
0.721875 0.538281 0
0.65625 0.535937 0
0.664062 0.669922 0
0.597656 0.666992 0
0.53125 0.664062 0
0.660156 0.60293 0
0.594141 0.600293 0
0.528125 0.597656 0
0.65625 0.535937 0
0.590625 0.533594 0
0.525 0.53125 0
0.55 1.0625 0
0.48125 1.05781 0
0.4125 1.05313 0
0.546875 0.996094 0
0.478516 0.991699 0
0.410156 0.987305 0
0.54375 0.929688 0
0.475781 0.925586 0
0.407813 0.921484 0
0.4125 1.05313 0
0.34375 1.04844 0
0.275 1.04375 0
0.410156 0.987305 0
0.341797 0.98291 0
0.273438 0.978516 0
0.407813 0.921484 0
0.339844 0.917383 0
0.271875 0.913281 0
0.54375 0.929688 0
0.475781 0.925586 0
0.407813 0.921484 0
0.540625 0.863281 0
0.473047 0.859473 0
0.405469 0.855664 0
0.5375 0.796875 0
0.470313 0.793359 0
0.403125 0.789844 0
0.407813 0.921484 0
0.339844 0.917383 0
0.271875 0.913281 0
0.405469 0.855664 0
0.337891 0.851855 0
0.270313 0.848047 0
0.403125 0.789844 0
0.335938 0.786328 0
0.26875 0.782813 0
0.275 1.04375 0
0.20625 1.03906 0
0.1375 1.03437 0
0.273438 0.978516 0
0.205078 0.974121 0
0.136719 0.969727 0
0.271875 0.913281 0
0.203906 0.90918 0
0.135938 0.905078 0
0.1375 1.03437 0
0.06875 1.02969 0
0 1.025 0
0.136719 0.969727 0
0.0683594 0.965332 0
0 0.960937 0
0.135938 0.905078 0
0.0679688 0.900977 0
0 0.896875 0
0.271875 0.913281 0
0.203906 0.90918 0
0.135938 0.905078 0
0.270313 0.848047 0
0.202734 0.844238 0
0.135156 0.84043 0
0.26875 0.782813 0
0.201563 0.779297 0
0.134375 0.775781 0
0.135938 0.905078 0
0.0679688 0.900977 0
0 0.896875 0
0.135156 0.84043 0
0.0675781 0.836621 0
0 0.832812 0
0.134375 0.775781 0
0.0671875 0.772266 0
0 0.76875 0
0.5375 0.796875 0
0.470313 0.793359 0
0.403125 0.789844 0
0.534375 0.730469 0
0.467578 0.727246 0
0.400781 0.724023 0
0.53125 0.664062 0
0.464844 0.661133 0
0.398438 0.658203 0
0.403125 0.789844 0
0.335938 0.786328 0
0.26875 0.782813 0
0.400781 0.724023 0
0.333984 0.720801 0
0.267188 0.717578 0
0.398438 0.658203 0
0.332031 0.655273 0
0.265625 0.652344 0
0.53125 0.664062 0
0.464844 0.661133 0
0.398438 0.658203 0
0.528125 0.597656 0
0.462109 0.59502 0
0.396094 0.592383 0
0.525 0.53125 0
0.459375 0.528906 0
0.39375 0.526563 0
0.398438 0.658203 0
0.332031 0.655273 0
0.265625 0.652344 0
0.396094 0.592383 0
0.330078 0.589746 0
0.264062 0.587109 0
0.39375 0.526563 0
0.328125 0.524219 0
0.2625 0.521875 0
0.26875 0.782813 0
0.201563 0.779297 0
0.134375 0.775781 0
0.267188 0.717578 0
0.200391 0.714355 0
0.133594 0.711133 0
0.265625 0.652344 0
0.199219 0.649414 0
0.132812 0.646484 0
0.134375 0.775781 0
0.0671875 0.772266 0
0 0.76875 0
0.133594 0.711133 0
0.0667969 0.70791 0
0 0.704687 0
0.132812 0.646484 0
0.0664062 0.643555 0
0 0.640625 0
0.265625 0.652344 0
0.199219 0.649414 0
0.132812 0.646484 0
0.264062 0.587109 0
0.198047 0.584473 0
0.132031 0.581836 0
0.2625 0.521875 0
0.196875 0.519531 0
0.13125 0.517187 0
0.132812 0.646484 0
0.0664062 0.643555 0
0 0.640625 0
0.132031 0.581836 0
0.0660156 0.579199 0
0 0.576562 0
0.13125 0.517187 0
0.065625 0.514844 0
0 0.5125 0
1.05 0.55 0
0.984375 0.547656 0
0.91875 0.545313 0
1.04375 0.48125 0
0.978516 0.479199 0
0.913281 0.477148 0
1.0375 0.4125 0
0.972656 0.410742 0
0.907813 0.408984 0
0.91875 0.545313 0
0.853125 0.542969 0
0.7875 0.540625 0
0.913281 0.477148 0
0.848047 0.475098 0
0.782813 0.473047 0
0.907813 0.408984 0
0.842969 0.407227 0
0.778125 0.405469 0
1.0375 0.4125 0
0.972656 0.410742 0
0.907813 0.408984 0
1.03125 0.34375 0
0.966797 0.342285 0
0.902344 0.34082 0
1.025 0.275 0
0.960937 0.273828 0
0.896875 0.272656 0
0.907813 0.408984 0
0.842969 0.407227 0
0.778125 0.405469 0
0.902344 0.34082 0
0.837891 0.339355 0
0.773438 0.337891 0
0.896875 0.272656 0
0.832812 0.271484 0
0.76875 0.270313 0
0.7875 0.540625 0
0.721875 0.538281 0
0.65625 0.535937 0
0.782813 0.473047 0
0.717578 0.470996 0
0.652344 0.468945 0
0.778125 0.405469 0
0.713281 0.403711 0
0.648438 0.401953 0
0.65625 0.535937 0
0.590625 0.533594 0
0.525 0.53125 0
0.652344 0.468945 0
0.587109 0.466895 0
0.521875 0.464844 0
0.648438 0.401953 0
0.583594 0.400195 0
0.51875 0.398438 0
0.778125 0.405469 0
0.713281 0.403711 0
0.648438 0.401953 0
0.773438 0.337891 0
0.708984 0.336426 0
0.644531 0.334961 0
0.76875 0.270313 0
0.704687 0.269141 0
0.640625 0.267969 0
0.648438 0.401953 0
0.583594 0.400195 0
0.51875 0.398438 0
0.644531 0.334961 0
0.580078 0.333496 0
0.515625 0.332031 0
0.640625 0.267969 0
0.576562 0.266797 0
0.5125 0.265625 0
1.025 0.275 0
0.960937 0.273828 0
0.896875 0.272656 0
1.01875 0.20625 0
0.955078 0.205371 0
0.891406 0.204492 0
1.0125 0.1375 0
0.949219 0.136914 0
0.885937 0.136328 0
0.896875 0.272656 0
0.832812 0.271484 0
0.76875 0.270313 0
0.891406 0.204492 0
0.827734 0.203613 0
0.764062 0.202734 0
0.885937 0.136328 0
0.822656 0.135742 0
0.759375 0.135156 0
1.0125 0.1375 0
0.949219 0.136914 0
0.885937 0.136328 0
1.00625 0.06875 0
0.943359 0.068457 0
0.880469 0.0681641 0
1 0 0
0.9375 0 0
0.875 0 0
0.885937 0.136328 0
0.822656 0.135742 0
0.759375 0.135156 0
0.880469 0.0681641 0
0.817578 0.0678711 0
0.754687 0.0675781 0
0.875 0 0
0.8125 0 0
0.75 0 0
0.76875 0.270313 0
0.704687 0.269141 0
0.640625 0.267969 0
0.764062 0.202734 0
0.700391 0.201855 0
0.636719 0.200977 0
0.759375 0.135156 0
0.696094 0.13457 0
0.632812 0.133984 0
0.640625 0.267969 0
0.576562 0.266797 0
0.5125 0.265625 0
0.636719 0.200977 0
0.573047 0.200098 0
0.509375 0.199219 0
0.632812 0.133984 0
0.569531 0.133398 0
0.50625 0.132812 0
0.759375 0.135156 0
0.696094 0.13457 0
0.632812 0.133984 0
0.754687 0.0675781 0
0.691797 0.0672852 0
0.628906 0.0669922 0
0.75 0 0
0.6875 0 0
0.625 0 0
0.632812 0.133984 0
0.569531 0.133398 0
0.50625 0.132812 0
0.628906 0.0669922 0
0.566016 0.0666992 0
0.503125 0.0664062 0
0.625 0 0
0.5625 0 0
0.5 0 0
0.525 0.53125 0
0.459375 0.528906 0
0.39375 0.526563 0
0.521875 0.464844 0
0.456641 0.462793 0
0.391406 0.460742 0
0.51875 0.398438 0
0.453906 0.39668 0
0.389063 0.394922 0
0.39375 0.526563 0
0.328125 0.524219 0
0.2625 0.521875 0
0.391406 0.460742 0
0.326172 0.458691 0
0.260938 0.456641 0
0.389063 0.394922 0
0.324219 0.393164 0
0.259375 0.391406 0
0.51875 0.398438 0
0.453906 0.39668 0
0.389063 0.394922 0
0.515625 0.332031 0
0.451172 0.330566 0
0.386719 0.329102 0
0.5125 0.265625 0
0.448437 0.264453 0
0.384375 0.263281 0
0.389063 0.394922 0
0.324219 0.393164 0
0.259375 0.391406 0
0.386719 0.329102 0
0.322266 0.327637 0
0.257812 0.326172 0
0.384375 0.263281 0
0.320312 0.262109 0
0.25625 0.260937 0
0.2625 0.521875 0
0.196875 0.519531 0
0.13125 0.517187 0
0.260938 0.456641 0
0.195703 0.45459 0
0.130469 0.452539 0
0.259375 0.391406 0
0.194531 0.389648 0
0.129688 0.387891 0
0.13125 0.517187 0
0.065625 0.514844 0
0 0.5125 0
0.130469 0.452539 0
0.0652344 0.450488 0
0 0.448437 0
0.129688 0.387891 0
0.0648438 0.386133 0
0 0.384375 0
0.259375 0.391406 0
0.194531 0.389648 0
0.129688 0.387891 0
0.257812 0.326172 0
0.193359 0.324707 0
0.128906 0.323242 0
0.25625 0.260937 0
0.192187 0.259766 0
0.128125 0.258594 0
0.129688 0.387891 0
0.0648438 0.386133 0
0 0.384375 0
0.128906 0.323242 0
0.0644531 0.321777 0
0 0.320312 0
0.128125 0.258594 0
0.0640625 0.257422 0
0 0.25625 0
0.5125 0.265625 0
0.448437 0.264453 0
0.384375 0.263281 0
0.509375 0.199219 0
0.445703 0.19834 0
0.382031 0.197461 0
0.50625 0.132812 0
0.442969 0.132227 0
0.379688 0.131641 0
0.384375 0.263281 0
0.320312 0.262109 0
0.25625 0.260937 0
0.382031 0.197461 0
0.318359 0.196582 0
0.254687 0.195703 0
[...]
POINT_DATA 34560
VECTORS v double
1.22851 -0.242167 0
1.21634 -0.220355 0
1.20488 -0.200969 0
1.19448 -0.227822 0
1.1805 -0.209144 0
1.16792 -0.191538 0
1.15757 -0.213716 0
1.14248 -0.196938 0
1.12834 -0.181007 0
1.20488 -0.200969 0
1.19559 -0.182368 0
1.18702 -0.165628 0
1.16792 -0.191538 0
1.15684 -0.174839 0
1.14715 -0.159298 0
1.12834 -0.181007 0
1.11594 -0.165802 0
1.10462 -0.151425 0
1.15757 -0.213716 0
1.14248 -0.196938 0
1.12834 -0.181007 0
1.11476 -0.195685 0
1.09831 -0.181308 0
1.08293 -0.167512 0
1.06506 -0.179116 0
1.04808 -0.166712 0
1.03204 -0.154643 0
1.12834 -0.181007 0
1.11594 -0.165802 0
1.10462 -0.151425 0
1.08293 -0.167512 0
1.06926 -0.154185 0
1.05676 -0.141448 0
1.03204 -0.154643 0
1.01772 -0.142853 0
1.00448 -0.131456 0
1.18702 -0.165628 0
1.17968 -0.149586 0
1.17303 -0.134831 0
1.14715 -0.159298 0
1.13821 -0.14443 0
1.13062 -0.130517 0
1.10462 -0.151425 0
1.09443 -0.137662 0
1.08539 -0.124586 0
1.17303 -0.134831 0
1.16675 -0.120604 0
1.16105 -0.107213 0
1.13062 -0.130517 0
1.12293 -0.116999 0
1.11645 -0.104183 0
1.08539 -0.124586 0
1.07662 -0.111914 0
1.06895 -0.0997263 0
1.10462 -0.151425 0
1.09443 -0.137662 0
1.08539 -0.124586 0
1.05676 -0.141448 0
1.04547 -0.129065 0
1.03538 -0.117246 0
1.00448 -0.131456 0
0.99249 -0.120301 0
0.981652 -0.109543 0
1.08539 -0.124586 0
1.07662 -0.111914 0
1.06895 -0.0997263 0
1.03538 -0.117246 0
1.02574 -0.105639 0
1.01724 -0.0943798 0
0.981652 -0.109543 0
0.971388 -0.098903 0
0.962253 -0.0885115 0
1.06506 -0.179116 0
1.04808 -0.166712 0
1.03204 -0.154643 0
1.01047 -0.161542 0
0.993132 -0.150978 0
0.976671 -0.140584 0
0.951417 -0.144846 0
0.93393 -0.135804 0
0.917194 -0.126838 0
1.03204 -0.154643 0
1.01772 -0.142853 0
1.00448 -0.131456 0
0.976671 -0.140584 0
0.96182 -0.13032 0
0.947988 -0.12033 0
0.917194 -0.126838 0
0.901988 -0.117928 0
0.88772 -0.109191 0
0.951417 -0.144846 0
0.93393 -0.135804 0
0.917194 -0.126838 0
0.887576 -0.126913 0
0.870039 -0.119374 0
0.85321 -0.111861 0
0.81897 -0.110177 0
0.801692 -0.103891 0
0.78502 -0.0976013 0
0.917194 -0.126838 0
0.901988 -0.117928 0
0.88772 -0.109191 0
0.85321 -0.111861 0
0.837791 -0.104344 0
0.823268 -0.0969337 0
0.78502 -0.0976013 0
0.76963 -0.0912824 0
0.755053 -0.0850318 0
1.00448 -0.131456 0
0.99249 -0.120301 0
0.981652 -0.109543 0
0.947988 -0.12033 0
0.935415 -0.110458 0
0.92395 -0.100868 0
0.88772 -0.109191 0
0.874717 -0.100498 0
0.862777 -0.0920012 0
0.981652 -0.109543 0
0.971388 -0.098903 0
0.962253 -0.0885115 0
0.92395 -0.100868 0
0.913184 -0.0913106 0
0.903523 -0.0819152 0
0.862777 -0.0920012 0
0.851627 -0.0834779 0
0.841561 -0.0750449 0
0.88772 -0.109191 0
0.874717 -0.100498 0
0.862777 -0.0920012 0
0.823268 -0.0969337 0
0.809975 -0.0895015 0
0.797716 -0.0821928 0
0.755053 -0.0850318 0
0.741643 -0.0787324 0
0.72921 -0.0725133 0
0.862777 -0.0920012 0
0.851627 -0.0834779 0
0.841561 -0.0750449 0
0.797716 -0.0821928 0
0.786298 -0.0747973 0
0.775956 -0.0674318 0
0.72921 -0.0725133 0
0.717649 -0.0661804 0
0.707136 -0.059835 0
1.16105 -0.107213 0
1.15562 -0.0940716 0
1.15072 -0.0813178 0
1.11645 -0.104183 0
1.10991 -0.0915204 0
1.10447 -0.0792092 0
1.06895 -0.0997263 0
1.06157 -0.0876983 0
1.05528 -0.0759153 0
1.15072 -0.0813178 0
1.14567 -0.0685304 0
1.1411 -0.0557664 0
1.10447 -0.0792092 0
1.09856 -0.0667727 0
1.09362 -0.0543898 0
1.05528 -0.0759153 0
1.04874 -0.0640427 0
1.04322 -0.0521374 0
1.06895 -0.0997263 0
1.06157 -0.0876983 0
1.05528 -0.0759153 0
1.01724 -0.0943798 0
1.0092 -0.0831555 0
1.00228 -0.072137 0
0.962253 -0.0885115 0
0.953692 -0.0781096 0
0.946255 -0.0678342 0
1.05528 -0.0759153 0
1.04874 -0.0640427 0
1.04322 -0.0521374 0
1.00228 -0.072137 0
0.995328 -0.0609686 0
0.989405 -0.0496969 0
0.946255 -0.0678342 0
0.938947 -0.0573744 0
0.932701 -0.0467948 0
1.1411 -0.0557664 0
1.13664 -0.0426083 0
1.1327 -0.0290598 0
1.09362 -0.0543898 0
1.08863 -0.0415872 0
1.08459 -0.0284177 0
1.04322 -0.0521374 0
1.03787 -0.0398376 0
1.03355 -0.0271901 0
1.1327 -0.0290598 0
1.12858 -0.0148287 0
1.125 0 0
1.08459 -0.0284177 0
1.08018 -0.0145132 0
1.07666 0 0
1.03355 -0.0271901 0
1.02897 -0.0138816 0
1.02539 0 0
1.04322 -0.0521374 0
1.03787 -0.0398376 0
1.03355 -0.0271901 0
0.989405 -0.0496969 0
0.983834 -0.0380098 0
0.979322 -0.0260024 0
0.932701 -0.0467948 0
0.926911 -0.0358195 0
0.92222 -0.0245112 0
1.03355 -0.0271901 0
1.02897 -0.0138816 0
1.02539 0 0
0.979322 -0.0260024 0
0.974749 -0.0133286 0
0.971191 0 0
0.92222 -0.0245112 0
0.917602 -0.0125552 0
0.914062 0 0
0.962253 -0.0885115 0
0.953692 -0.0781096 0
0.946255 -0.0678342 0
0.903523 -0.0819152 0
0.894556 -0.0724405 0
0.886705 -0.0630241 0
0.841561 -0.0750449 0
0.832278 -0.0664917 0
0.824113 -0.0579469 0
0.946255 -0.0678342 0
0.938947 -0.0573744 0
0.932701 -0.0467948 0
0.886705 -0.0630241 0
0.879147 -0.053396 0
0.872666 -0.0436199 0
0.824113 -0.0579469 0
0.816368 -0.0491729 0
0.80971 -0.0402263 0
0.841561 -0.0750449 0
0.832278 -0.0664917 0
0.824113 -0.0579469 0
0.775956 -0.0674318 0
0.766462 -0.0598978 0
0.75809 -0.0523226 0
0.707136 -0.059835 0
0.697516 -0.053296 0
0.689015 -0.0466797 0
0.824113 -0.0579469 0
0.816368 -0.0491729 0
0.80971 -0.0402263 0
0.75809 -0.0523226 0
0.750237 -0.0444892 0
0.743488 -0.036461 0
0.689015 -0.0466797 0
0.681115 -0.0397949 0
0.674331 -0.0326971 0
0.932701 -0.0467948 0
0.926911 -0.0358195 0
0.92222 -0.0245112 0
0.872666 -0.0436199 0
0.866759 -0.0334408 0
0.861982 -0.022918 0
0.80971 -0.0402263 0
0.803718 -0.0308874 0
0.798876 -0.0212057 0
0.92222 -0.0245112 0
0.917602 -0.0125552 0
0.914062 0 0
0.861982 -0.022918 0
0.857434 -0.0117599 0
0.854004 0 0
0.798876 -0.0212057 0
0.794369 -0.0109071 0
0.791016 0 0
0.80971 -0.0402263 0
0.803718 -0.0308874 0
0.798876 -0.0212057 0
0.743488 -0.036461 0
0.737482 -0.0280431 0
0.732658 -0.019284 0
0.674331 -0.0326971 0
0.668346 -0.0252224 0
0.66356 -0.0174104 0
0.798876 -0.0212057 0
0.794369 -0.0109071 0
0.791016 0 0
0.732658 -0.019284 0
0.72828 -0.00992942 0
0.725098 0 0
0.66356 -0.0174104 0
0.659293 -0.00901816 0
0.65625 0 0
0.81897 -0.110177 0
0.801692 -0.103891 0
0.78502 -0.0976013 0
0.746134 -0.0929347 0
0.729186 -0.0877668 0
0.712785 -0.0825979 0
0.668661 -0.0767344 0
0.652236 -0.0725445 0
0.636297 -0.0683594 0
0.78502 -0.0976013 0
0.76963 -0.0912824 0
0.755053 -0.0850318 0
0.712785 -0.0825979 0
0.697524 -0.0774079 0
0.683011 -0.0722811 0
0.636297 -0.0683594 0
0.62138 -0.0641696 0
0.607142 -0.060047 0
0.668661 -0.0767344 0
0.652236 -0.0725445 0
0.636297 -0.0683594 0
0.586693 -0.0603338 0
0.570848 -0.0570471 0
0.555491 -0.0537753 0
0.499418 -0.0449853 0
0.484337 -0.0425501 0
0.469751 -0.0401296 0
0.636297 -0.0683594 0
0.62138 -0.0641696 0
0.607142 -0.060047 0
0.555491 -0.0537753 0
0.541059 -0.0505114 0
0.527273 -0.0473199 0
0.469751 -0.0401296 0
0.456029 -0.0377214 0
0.442936 -0.0353835 0
0.755053 -0.0850318 0
0.741643 -0.0787324 0
0.72921 -0.0725133 0
0.683011 -0.0722811 0
0.669583 -0.0671086 0
0.657085 -0.062001 0
0.607142 -0.060047 0
0.59389 -0.0558973 0
0.581497 -0.0518146 0
0.72921 -0.0725133 0
0.717649 -0.0661804 0
0.707136 -0.059835 0
0.657085 -0.062001 0
0.645457 -0.0567708 0
0.634859 -0.0515045 0
0.581497 -0.0518146 0
0.569944 -0.0476226 0
0.559377 -0.043388 0
0.607142 -0.060047 0
0.59389 -0.0558973 0
0.581497 -0.0518146 0
0.527273 -0.0473199 0
0.514368 -0.0441212 0
0.502264 -0.0410035 0
0.442936 -0.0353835 0
0.430638 -0.0330545 0
0.419082 -0.0308119 0
0.581497 -0.0518146 0
0.569944 -0.0476226 0
0.559377 -0.043388 0
0.502264 -0.0410035 0
0.490931 -0.0378079 0
0.480526 -0.0345858 0
0.419082 -0.0308119 0
0.408221 -0.0285265 0
0.398209 -0.0262379 0
0.499418 -0.0449853 0
0.484337 -0.0425501 0
0.469751 -0.0401296 0
0.406073 -0.0297784 0
0.391982 -0.0281695 0
0.378426 -0.02658 0
0.30178 -0.0160754 0
0.289618 -0.0152593 0
0.277931 -0.014454 0
0.469751 -0.0401296 0
0.456029 -0.0377214 0
0.442936 -0.0353835 0
0.378426 -0.02658 0
0.365672 -0.0249998 0
0.353556 -0.0234781 0
0.277931 -0.014454 0
0.266928 -0.0136444 0
0.256491 -0.0128686 0
0.30178 -0.0160754 0
0.289618 -0.0152593 0
0.277931 -0.014454 0
0.177498 -0.00489099 0
0.169006 -0.00462952 0
0.160842 -0.00438509 0
0 0 0
0 0 0
0 0 0
0.277931 -0.014454 0
0.266928 -0.0136444 0
0.256491 -0.0128686 0
0.160842 -0.00438509 0
0.153094 -0.00413928 0
0.145751 -0.00392013 0
0 0 0
0 0 0
0 0 0
0.442936 -0.0353835 0
0.430638 -0.0330545 0
0.419082 -0.0308119 0
0.353556 -0.0234781 0
0.342151 -0.0219592 0
0.331455 -0.0205133 0
0.256491 -0.0128686 0
0.246637 -0.0120778 0
0.237391 -0.0113332 0
0.419082 -0.0308119 0
0.408221 -0.0285265 0
0.398209 -0.0262379 0
0.331455 -0.0205133 0
0.321362 -0.019036 0
0.312038 -0.0175676 0
0.237391 -0.0113332 0
0.228639 -0.0105641 0
0.220532 -0.00980826 0
0.256491 -0.0128686 0
0.246637 -0.0120778 0
0.237391 -0.0113332 0
0.145751 -0.00392013 0
0.138752 -0.00367851 0
0.132199 -0.00346614 0
0 0 0
0 0 0
0 0 0
0.237391 -0.0113332 0
0.228639 -0.0105641 0
0.220532 -0.00980826 0
0.132199 -0.00346614 0
0.125938 -0.00322619 0
0.120169 -0.0030045 0
0 0 0
0 0 0
0 0 0
0.707136 -0.059835 0
0.697516 -0.053296 0
0.689015 -0.0466797 0
0.634859 -0.0515045 0
0.62518 -0.0460253 0
0.616622 -0.0404396 0
0.559377 -0.043388 0
0.549724 -0.0389391 0
0.541179 -0.0343708 0
0.689015 -0.0466797 0
0.681115 -0.0397949 0
0.674331 -0.0326971 0
0.616622 -0.0404396 0
0.608732 -0.0345685 0
0.601972 -0.0284675 0
0.541179 -0.0343708 0
0.533352 -0.0295143 0
0.526665 -0.0244162 0
0.559377 -0.043388 0
0.549724 -0.0389391 0
0.541179 -0.0343708 0
0.480526 -0.0345858 0
0.470987 -0.0311728 0
0.462526 -0.0276482 0
0.398209 -0.0262379 0
0.388969 -0.0238013 0
0.380732 -0.0212762 0
0.541179 -0.0343708 0
0.533352 -0.0295143 0
0.526665 -0.0244162 0
0.462526 -0.0276482 0
0.454809 -0.0238456 0
0.448237 -0.0197969 0
0.380732 -0.0212762 0
0.373223 -0.0185012 0
0.366832 -0.0154951 0
0.674331 -0.0326971 0
0.668346 -0.0252224 0
0.66356 -0.0174104 0
0.601972 -0.0284675 0
0.596058 -0.0219983 0
0.59137 -0.0152047 0
0.526665 -0.0244162 0
0.520856 -0.0189637 0
0.516291 -0.0131999 0
0.66356 -0.0174104 0
0.659293 -0.00901816 0
0.65625 0 0
0.59137 -0.0152047 0
0.587287 -0.0078731 0
0.584473 0 0
0.516291 -0.0131999 0
0.512383 -0.00692161 0
0.509766 0 0
0.526665 -0.0244162 0
0.520856 -0.0189637 0
0.516291 -0.0131999 0
0.448237 -0.0197969 0
0.442561 -0.0154061 0
0.43815 -0.0107318 0
0.366832 -0.0154951 0
0.361335 -0.0121724 0
0.357106 -0.0085883 0
0.516291 -0.0131999 0
0.512383 -0.00692161 0
0.509766 0 0
0.43815 -0.0107318 0
0.434468 -0.00561031 0
0.432129 0 0
0.357106 -0.0085883 0
0.353657 -0.0046098 0
0.351562 0 0
0.398209 -0.0262379 0
0.388969 -0.0238013 0
0.380732 -0.0212762 0
0.312038 -0.0175676 0
0.30335 -0.0159914 0
0.295563 -0.0143661 0
0.220532 -0.00980826 0
0.212919 -0.00899026 0
0.206045 -0.00815856 0
0.380732 -0.0212762 0
0.373223 -0.0185012 0
0.366832 -0.0154951 0
0.295563 -0.0143661 0
0.288415 -0.0125554 0
0.282311 -0.0105636 0
0.206045 -0.00815856 0
0.199692 -0.00722607 0
0.194233 -0.0061953 0
0.220532 -0.00980826 0
0.212919 -0.00899026 0
0.206045 -0.00815856 0
0.120169 -0.0030045 0
0.114683 -0.00274441 0
0.109777 -0.00249247 0
0 0 0
0 0 0
0 0 0
0.206045 -0.00815856 0
0.199692 -0.00722607 0
0.194233 -0.0061953 0
0.109777 -0.00249247 0
0.105165 -0.00218901 0
0.101242 -0.00186527 0
0 0 0
0 0 0
0 0 0
0.366832 -0.0154951 0
0.361335 -0.0121724 0
0.357106 -0.0085883 0
0.282311 -0.0105636 0
0.277046 -0.00830674 0
0.273036 -0.00584445 0
0.194233 -0.0061953 0
0.189502 -0.00499787 0
0.185909 -0.00365025 0
0.357106 -0.0085883 0
0.353657 -0.0046098 0
0.351562 0 0
0.273036 -0.00584445 0
0.269853 -0.00308132 0
0.268066 0 0
0.185909 -0.00365025 0
0.18312 -0.00209237 0
0.181641 0 0
0.194233 -0.0061953 0
0.189502 -0.00499787 0
0.185909 -0.00365025 0
0.101242 -0.00186527 0
0.0977554 -0.00148224 0
0.0952188 -0.00104763 0
0 0 0
0 0 0
0 0 0
0.185909 -0.00365025 0
0.18312 -0.00209237 0
0.181641 0 0
0.0952188 -0.00104763 0
0.0931845 -0.000511941 0
0.0922852 0 0
0 0 0
0 0 0
0 0 0
1.65767 -0.290346 0
1.62758 -0.317859 0
1.59139 -0.341846 0
1.58143 -0.246401 0
1.55299 -0.272731 0
1.52159 -0.294694 0
1.50267 -0.212966 0
1.48072 -0.237403 0
1.45514 -0.25802 0
1.59139 -0.341846 0
1.55573 -0.357627 0
1.5155 -0.369261 0
1.52159 -0.294694 0
1.48889 -0.311267 0
1.4541 -0.323091 0
1.45514 -0.25802 0
1.42891 -0.27437 0
1.39994 -0.286411 0
1.50267 -0.212966 0
1.48072 -0.237403 0
1.45514 -0.25802 0
1.4388 -0.186538 0
1.41972 -0.20667 0
1.39774 -0.223946 0
1.36076 -0.159065 0
1.3435 -0.176919 0
1.32371 -0.192367 0
1.45514 -0.25802 0
1.42891 -0.27437 0
1.39994 -0.286411 0
1.39774 -0.223946 0
1.37437 -0.237762 0
1.34863 -0.248321 0
1.32371 -0.192367 0
1.30286 -0.205138 0
1.28 -0.215167 0
1.5155 -0.369261 0
1.47973 -0.373619 0
1.44108 -0.373582 0
1.4541 -0.323091 0
1.42178 -0.329555 0
1.38843 -0.332209 0
1.39994 -0.286411 0
1.3731 -0.294228 0
1.34448 -0.298105 0
1.44108 -0.373582 0
1.40832 -0.368636 0
1.37399 -0.360531 0
1.38843 -0.332209 0
1.35884 -0.330592 0
1.32901 -0.325881 0
1.34448 -0.298105 0
1.31884 -0.298358 0
1.29223 -0.295396 0
1.39994 -0.286411 0
1.3731 -0.294228 0
1.34448 -0.298105 0
1.34863 -0.248321 0
1.32391 -0.255405 0
1.29756 -0.25945 0
1.28 -0.215167 0
1.25801 -0.222411 0
1.2347 -0.227089 0
1.34448 -0.298105 0
1.31884 -0.298358 0
1.29223 -0.295396 0
1.29756 -0.25945 0
1.2733 -0.260575 0
1.24812 -0.259162 0
1.2347 -0.227089 0
1.21302 -0.229278 0
1.1906 -0.229225 0
1.36076 -0.159065 0
1.3435 -0.176919 0
1.32371 -0.192367 0
1.28172 -0.139424 0
1.26701 -0.154885 0
1.25 -0.168381 0
1.20698 -0.119625 0
1.19356 -0.133277 0
1.17808 -0.145285 0
1.32371 -0.192367 0
1.30286 -0.205138 0
1.28 -0.215167 0
1.25 -0.168381 0
1.23207 -0.179596 0
1.2122 -0.18852 0
1.17808 -0.145285 0
1.1617 -0.155356 0
1.14357 -0.163492 0
1.20698 -0.119625 0
1.19356 -0.133277 0
1.17808 -0.145285 0
1.12956 -0.101933 0
1.11727 -0.113624 0
1.10304 -0.123938 0
1.04903 -0.0848461 0
1.03755 -0.0949972 0
1.02428 -0.104044 0
1.17808 -0.145285 0
1.1617 -0.155356 0
1.14357 -0.163492 0
1.10304 -0.123938 0
1.08801 -0.132668 0
1.07134 -0.139798 0
1.02428 -0.104044 0
1.01033 -0.111787 0
0.994863 -0.118198 0
1.28 -0.215167 0
1.25801 -0.222411 0
1.2347 -0.227089 0
1.2122 -0.18852 0
1.19294 -0.195068 0
1.17224 -0.199433 0
1.14357 -0.163492 0
1.12577 -0.169602 0
1.1067 -0.173856 0
1.2347 -0.227089 0
1.21302 -0.229278 0
1.1906 -0.229225 0
1.17224 -0.199433 0
1.15276 -0.201681 0
1.13234 -0.201987 0
1.1067 -0.173856 0
1.08852 -0.176285 0
1.0695 -0.177043 0
1.14357 -0.163492 0
1.12577 -0.169602 0
1.1067 -0.173856 0
1.07134 -0.139798 0
1.05493 -0.145276 0
1.03729 -0.149189 0
0.994863 -0.118198 0
0.979575 -0.123211 0
0.963134 -0.1269 0
1.1067 -0.173856 0
1.08852 -0.176285 0
1.0695 -0.177043 0
1.03729 -0.149189 0
1.02038 -0.151588 0
1.00264 -0.152549 0
0.963134 -0.1269 0
0.947275 -0.129282 0
0.930616 -0.130423 0
1.37399 -0.360531 0
1.34699 -0.349589 0
1.31967 -0.336003 0
1.32901 -0.325881 0
1.30455 -0.317981 0
1.28057 -0.308359 0
1.29223 -0.295396 0
1.2698 -0.289871 0
1.24719 -0.282174 0
1.31967 -0.336003 0
1.29839 -0.32144 0
1.27749 -0.305724 0
1.28057 -0.308359 0
1.26089 -0.296961 0
1.24205 -0.284342 0
1.24719 -0.282174 0
1.22804 -0.27279 0
1.20922 -0.262041 0
1.29223 -0.295396 0
1.2698 -0.289871 0
1.24719 -0.282174 0
1.24812 -0.259162 0
1.22635 -0.255528 0
1.2044 -0.25003 0
1.1906 -0.229225 0
1.1709 -0.227161 0
1.15107 -0.223429 0
1.24719 -0.282174 0
1.22804 -0.27279 0
1.20922 -0.262041 0
1.2044 -0.25003 0
1.18554 -0.243085 0
1.16702 -0.234914 0
1.15107 -0.223429 0
1.13363 -0.218265 0
1.11641 -0.211888 0
1.27749 -0.305724 0
1.2623 -0.290005 0
1.24824 -0.273437 0
1.24205 -0.284342 0
1.22764 -0.270685 0
1.21438 -0.256648 0
1.20922 -0.262041 0
1.1941 -0.250495 0
1.1799 -0.238354 0
1.24824 -0.273437 0
1.23793 -0.257596 0
1.22851 -0.242167 0
1.21438 -0.256648 0
1.20381 -0.242322 0
1.19448 -0.227822 0
1.1799 -0.238354 0
1.16816 -0.226005 0
1.15757 -0.213716 0
1.20922 -0.262041 0
1.1941 -0.250495 0
1.1799 -0.238354 0
1.16702 -0.234914 0
1.15197 -0.225905 0
1.13772 -0.216214 0
1.11641 -0.211888 0
1.10199 -0.20458 0
1.08819 -0.196564 0
1.1799 -0.238354 0
1.16816 -0.226005 0
1.15757 -0.213716 0
1.13772 -0.216214 0
1.12577 -0.206121 0
1.11476 -0.195685 0
1.08819 -0.196564 0
1.07622 -0.188024 0
1.06506 -0.179116 0
1.1906 -0.229225 0
1.1709 -0.227161 0
1.15107 -0.223429 0
1.13234 -0.201987 0
1.11408 -0.200588 0
1.09544 -0.197732 0
1.0695 -0.177043 0
1.05222 -0.176312 0
1.03459 -0.17431 0
1.15107 -0.223429 0
1.13363 -0.218265 0
1.11641 -0.211888 0
1.09544 -0.197732 0
1.07874 -0.193669 0
1.06208 -0.188507 0
1.03459 -0.17431 0
1.01859 -0.171219 0
1.00261 -0.167157 0
1.0695 -0.177043 0
1.05222 -0.176312 0
1.03459 -0.17431 0
1.00264 -0.152549 0
0.986322 -0.152247 0
0.969608 -0.15082 0
0.930616 -0.130423 0
0.915118 -0.130456 0
0.899208 -0.129506 0
1.03459 -0.17431 0
1.01859 -0.171219 0
1.00261 -0.167157 0
0.969608 -0.15082 0
0.954238 -0.148452 0
0.938797 -0.145214 0
0.899208 -0.129506 0
0.884427 -0.127722 0
0.869538 -0.125168 0
1.11641 -0.211888 0
1.10199 -0.20458 0
1.08819 -0.196564 0
1.06208 -0.188507 0
1.04782 -0.18256 0
1.03403 -0.175996 0
1.00261 -0.167157 0
0.988661 -0.162363 0
0.975087 -0.156981 0
1.08819 -0.196564 0
1.07622 -0.188024 0
1.06506 -0.179116 0
1.03403 -0.175996 0
1.0219 -0.168987 0
1.01047 -0.161542 0
0.975087 -0.156981 0
0.962963 -0.151124 0
0.951417 -0.144846 0
1.00261 -0.167157 0
0.988661 -0.162363 0
0.975087 -0.156981 0
0.938797 -0.145214 0
0.925048 -0.141335 0
0.91157 -0.13692 0
0.869538 -0.125168 0
0.856092 -0.12204 0
0.842856 -0.118441 0
0.975087 -0.156981 0
0.962963 -0.151124 0
0.951417 -0.144846 0
0.91157 -0.13692 0
0.899332 -0.1321 0
0.887576 -0.126913 0
0.842856 -0.118441 0
0.830708 -0.114479 0
0.81897 -0.110177 0
1.04903 -0.0848461 0
1.03755 -0.0949972 0
1.02428 -0.104044 0
0.968304 -0.0705755 0
0.957347 -0.0790703 0
0.944759 -0.086669 0
0.886696 -0.0558216 0
0.875809 -0.0630192 0
0.863384 -0.0694955 0
1.02428 -0.104044 0
1.01033 -0.111787 0
0.994863 -0.118198 0
0.944759 -0.086669 0
0.931537 -0.0931978 0
0.916895 -0.0986257 0
0.863384 -0.0694955 0
0.850448 -0.0750965 0
0.836183 -0.0797962 0
0.886696 -0.0558216 0
0.875809 -0.0630192 0
0.863384 -0.0694955 0
0.802982 -0.0423848 0
0.792166 -0.0482619 0
0.779879 -0.0535618 0
0.714304 -0.0289457 0
0.70363 -0.0336402 0
0.691452 -0.0379035 0
0.863384 -0.0694955 0
0.850448 -0.0750965 0
0.836183 -0.0797962 0
0.779879 -0.0535618 0
0.767135 -0.0581555 0
0.753109 -0.0620267 0
0.691452 -0.0379035 0
0.678867 -0.0416223 0
0.664998 -0.0447853 0
0.994863 -0.118198 0
0.979575 -0.123211 0
0.963134 -0.1269 0
0.916895 -0.0986257 0
0.902359 -0.102901 0
0.886724 -0.106078 0
0.836183 -0.0797962 0
0.822018 -0.0835458 0
0.806827 -0.0863867 0
0.963134 -0.1269 0
0.947275 -0.129282 0
0.930616 -0.130423 0
0.886724 -0.106078 0
0.871566 -0.108178 0
0.855639 -0.109234 0
0.806827 -0.0863867 0
0.792073 -0.0883279 0
0.776606 -0.0893935 0
0.836183 -0.0797962 0
0.822018 -0.0835458 0
0.806827 -0.0863867 0
0.753109 -0.0620267 0
0.739157 -0.0651336 0
0.724208 -0.0675058 0
0.664998 -0.0447853 0
0.651184 -0.047354 0
0.636381 -0.0493507 0
0.806827 -0.0863867 0
0.792073 -0.0883279 0
0.776606 -0.0893935 0
0.724208 -0.0675058 0
0.709653 -0.0691537 0
0.694403 -0.0700865 0
0.636381 -0.0493507 0
0.621947 -0.050783 0
0.606839 -0.051652 0
0.714304 -0.0289457 0
0.70363 -0.0336402 0
0.691452 -0.0379035 0
0.612308 -0.016904 0
0.602773 -0.0203305 0
0.591602 -0.0234625 0
0.477197 -0.00620305 0
0.470547 -0.00829201 0
0.462084 -0.0102386 0
0.691452 -0.0379035 0
0.678867 -0.0416223 0
0.664998 -0.0447853 0
0.591602 -0.0234625 0
0.579938 -0.0262032 0
0.566876 -0.0285526 0
0.462084 -0.0102386 0
0.452997 -0.0119724 0
0.442394 -0.0134918 0
0.477197 -0.00620305 0
0.470547 -0.00829201 0
0.462084 -0.0102386 0
0.283065 -0.00144541 0
0.281234 -0.00214158 0
0.277651 -0.00280264 0
0 0 0
0 0 0
0 0 0
0.462084 -0.0102386 0
0.452997 -0.0119724 0
0.442394 -0.0134918 0
0.277651 -0.00280264 0
0.273597 -0.00338631 0
0.267999 -0.00389729 0
0 0 0
0 0 0
0 0 0
0.664998 -0.0447853 0
0.651184 -0.047354 0
0.636381 -0.0493507 0
0.566876 -0.0285526 0
0.553777 -0.0304761 0
0.539601 -0.0319892 0
0.442394 -0.0134918 0
0.431577 -0.0147731 0
0.419601 -0.0158176 0