# vtk DataFile Version 3.0
#This file was generated by the deal.II library on 2025/1/7 at 20:04:47
ASCII
DATASET UNSTRUCTURED_GRID

POINTS 34560 double
1.1 1.1 0
1.03125 1.09531 0
0.9625 1.09063 0
1.09375 1.03125 0
1.02539 1.02686 0
0.957031 1.02246 0
1.0875 0.9625 0
1.01953 0.958398 0
0.951563 0.954297 0
0.9625 1.09063 0
0.89375 1.08594 0
0.825 1.08125 0
0.957031 1.02246 0
0.888672 1.01807 0
0.820312 1.01367 0
0.951563 0.954297 0
0.883594 0.950195 0
0.815625 0.946094 0
1.0875 0.9625 0
1.01953 0.958398 0
0.951563 0.954297 0
1.08125 0.89375 0
1.01367 0.889941 0
0.946094 0.886133 0
1.075 0.825 0
1.00781 0.821484 0
0.940625 0.817969 0
0.951563 0.954297 0
0.883594 0.950195 0
0.815625 0.946094 0
0.946094 0.886133 0
0.878516 0.882324 0
0.810938 0.878516 0
0.940625 0.817969 0
0.873438 0.814453 0
0.80625 0.810937 0
0.825 1.08125 0
0.75625 1.07656 0
0.6875 1.07187 0
0.820312 1.01367 0
0.751953 1.00928 0
0.683594 1.00488 0
0.815625 0.946094 0
0.747656 0.941992 0
0.679688 0.937891 0
0.6875 1.07187 0
0.61875 1.06719 0
0.55 1.0625 0
0.683594 1.00488 0
0.615234 1.00049 0
0.546875 0.996094 0
0.679688 0.937891 0
0.611719 0.933789 0
0.54375 0.929688 0
0.815625 0.946094 0
0.747656 0.941992 0
0.679688 0.937891 0
0.810938 0.878516 0
0.743359 0.874707 0
0.675781 0.870898 0
0.80625 0.810937 0
0.739063 0.807422 0
0.671875 0.803906 0
0.679688 0.937891 0
0.611719 0.933789 0
0.54375 0.929688 0
0.675781 0.870898 0
0.608203 0.86709 0
0.540625 0.863281 0
0.671875 0.803906 0
0.604688 0.800391 0
0.5375 0.796875 0
1.075 0.825 0
1.00781 0.821484 0
0.940625 0.817969 0
1.06875 0.75625 0
1.00195 0.753027 0
0.935156 0.749805 0
1.0625 0.6875 0
0.996094 0.68457 0
0.929688 0.681641 0
0.940625 0.817969 0
0.873438 0.814453 0
0.80625 0.810937 0
0.935156 0.749805 0
0.868359 0.746582 0
0.801563 0.743359 0
0.929688 0.681641 0
0.863281 0.678711 0
0.796875 0.675781 0
1.0625 0.6875 0
0.996094 0.68457 0
0.929688 0.681641 0
1.05625 0.61875 0
0.990234 0.616113 0
0.924219 0.613477 0
1.05 0.55 0
0.984375 0.547656 0
0.91875 0.545313 0
0.929688 0.681641 0
0.863281 0.678711 0
0.796875 0.675781 0
0.924219 0.613477 0
0.858203 0.61084 0
0.792188 0.608203 0
0.91875 0.545313 0
0.853125 0.542969 0
0.7875 0.540625 0
0.80625 0.810937 0
0.739063 0.807422 0
0.671875 0.803906 0
0.801563 0.743359 0
0.734766 0.740137 0
0.667969 0.736914 0
0.796875 0.675781 0
0.730469 0.672852 0
0.664062 0.669922 0
0.671875 0.803906 0
0.604688 0.800391 0
0.5375 0.796875 0
0.667969 0.736914 0
0.601172 0.733691 0
0.534375 0.730469 0
0.664062 0.669922 0
0.597656 0.666992 0
0.53125 0.664062 0
0.796875 0.675781 0
0.730469 0.672852 0
0.664062 0.669922 0
0.792188 0.608203 0
0.726172 0.605566 0
0.660156 0.60293 0
0.7875 0.540625 0
0.721875 0.538281 0
0.65625 0.535937 0
0.664062 0.669922 0
0.597656 0.666992 0
0.53125 0.664062 0
0.660156 0.60293 0
0.594141 0.600293 0
0.528125 0.597656 0
0.65625 0.535937 0
0.590625 0.533594 0
0.525 0.53125 0
0.55 1.0625 0
0.48125 1.05781 0
0.4125 1.05313 0
0.546875 0.996094 0
0.478516 0.991699 0
0.410156 0.987305 0
0.54375 0.929688 0
0.475781 0.925586 0
0.407813 0.921484 0
0.4125 1.05313 0
0.34375 1.04844 0
0.275 1.04375 0
0.410156 0.987305 0
0.341797 0.98291 0
0.273438 0.978516 0
0.407813 0.921484 0
0.339844 0.917383 0
0.271875 0.913281 0
0.54375 0.929688 0
0.475781 0.925586 0
0.407813 0.921484 0
0.540625 0.863281 0
0.473047 0.859473 0
0.405469 0.855664 0
0.5375 0.796875 0
0.470313 0.793359 0
0.403125 0.789844 0
0.407813 0.921484 0
0.339844 0.917383 0
0.271875 0.913281 0
0.405469 0.855664 0
0.337891 0.851855 0
0.270313 0.848047 0
0.403125 0.789844 0
0.335938 0.786328 0
0.26875 0.782813 0
0.275 1.04375 0
0.20625 1.03906 0
0.1375 1.03437 0
0.273438 0.978516 0
0.205078 0.974121 0
0.136719 0.969727 0
0.271875 0.913281 0
0.203906 0.90918 0
0.135938 0.905078 0
0.1375 1.03437 0
0.06875 1.02969 0
0 1.025 0
0.136719 0.969727 0
0.0683594 0.965332 0
0 0.960937 0
0.135938 0.905078 0
0.0679688 0.900977 0
0 0.896875 0
0.271875 0.913281 0
0.203906 0.90918 0
0.135938 0.905078 0
0.270313 0.848047 0
0.202734 0.844238 0
0.135156 0.84043 0
0.26875 0.782813 0
0.201563 0.779297 0
0.134375 0.775781 0
0.135938 0.905078 0
0.0679688 0.900977 0
0 0.896875 0
0.135156 0.84043 0
0.0675781 0.836621 0
0 0.832812 0
0.134375 0.775781 0
0.0671875 0.772266 0
0 0.76875 0
0.5375 0.796875 0
0.470313 0.793359 0
0.403125 0.789844 0
0.534375 0.730469 0
0.467578 0.727246 0
0.400781 0.724023 0
0.53125 0.664062 0
0.464844 0.661133 0
0.398438 0.658203 0
0.403125 0.789844 0
0.335938 0.786328 0
0.26875 0.782813 0
0.400781 0.724023 0
0.333984 0.720801 0
0.267188 0.717578 0
0.398438 0.658203 0
0.332031 0.655273 0
0.265625 0.652344 0
0.53125 0.664062 0
0.464844 0.661133 0
0.398438 0.658203 0
0.528125 0.597656 0
0.462109 0.59502 0
0.396094 0.592383 0
0.525 0.53125 0
0.459375 0.528906 0
0.39375 0.526563 0
0.398438 0.658203 0
0.332031 0.655273 0
0.265625 0.652344 0
0.396094 0.592383 0
0.330078 0.589746 0
0.264062 0.587109 0
0.39375 0.526563 0
0.328125 0.524219 0
0.2625 0.521875 0
0.26875 0.782813 0
0.201563 0.779297 0
0.134375 0.775781 0
0.267188 0.717578 0
0.200391 0.714355 0
0.133594 0.711133 0
0.265625 0.652344 0
0.199219 0.649414 0
0.132812 0.646484 0
0.134375 0.775781 0
0.0671875 0.772266 0
0 0.76875 0
0.133594 0.711133 0
0.0667969 0.70791 0
0 0.704687 0
0.132812 0.646484 0
0.0664062 0.643555 0
0 0.640625 0
0.265625 0.652344 0
0.199219 0.649414 0
0.132812 0.646484 0
0.264062 0.587109 0
0.198047 0.584473 0
0.132031 0.581836 0
0.2625 0.521875 0
0.196875 0.519531 0
0.13125 0.517187 0
0.132812 0.646484 0
0.0664062 0.643555 0
0 0.640625 0
0.132031 0.581836 0
0.0660156 0.579199 0
0 0.576562 0
0.13125 0.517187 0
0.065625 0.514844 0
0 0.5125 0
1.05 0.55 0
0.984375 0.547656 0
0.91875 0.545313 0
1.04375 0.48125 0
0.978516 0.479199 0
0.913281 0.477148 0
1.0375 0.4125 0
0.972656 0.410742 0
0.907813 0.408984 0
0.91875 0.545313 0
0.853125 0.542969 0
0.7875 0.540625 0
0.913281 0.477148 0
0.848047 0.475098 0
0.782813 0.473047 0
0.907813 0.408984 0
0.842969 0.407227 0
0.778125 0.405469 0
1.0375 0.4125 0
0.972656 0.410742 0
0.907813 0.408984 0
1.03125 0.34375 0
0.966797 0.342285 0
0.902344 0.34082 0
1.025 0.275 0
0.960937 0.273828 0
0.896875 0.272656 0
0.907813 0.408984 0
0.842969 0.407227 0
0.778125 0.405469 0
0.902344 0.34082 0
0.837891 0.339355 0
0.773438 0.337891 0
0.896875 0.272656 0
0.832812 0.271484 0
0.76875 0.270313 0
0.7875 0.540625 0
0.721875 0.538281 0
0.65625 0.535937 0
0.782813 0.473047 0
0.717578 0.470996 0
0.652344 0.468945 0
0.778125 0.405469 0
0.713281 0.403711 0
0.648438 0.401953 0
0.65625 0.535937 0
0.590625 0.533594 0
0.525 0.53125 0
0.652344 0.468945 0
0.587109 0.466895 0
0.521875 0.464844 0
0.648438 0.401953 0
0.583594 0.400195 0
0.51875 0.398438 0
0.778125 0.405469 0
0.713281 0.403711 0
0.648438 0.401953 0
0.773438 0.337891 0
0.708984 0.336426 0
0.644531 0.334961 0
0.76875 0.270313 0
0.704687 0.269141 0
0.640625 0.267969 0
0.648438 0.401953 0
0.583594 0.400195 0
0.51875 0.398438 0
0.644531 0.334961 0
0.580078 0.333496 0
0.515625 0.332031 0
0.640625 0.267969 0
0.576562 0.266797 0
0.5125 0.265625 0
1.025 0.275 0
0.960937 0.273828 0
0.896875 0.272656 0
1.01875 0.20625 0
0.955078 0.205371 0
0.891406 0.204492 0
1.0125 0.1375 0
0.949219 0.136914 0
0.885937 0.136328 0
0.896875 0.272656 0
0.832812 0.271484 0
0.76875 0.270313 0
0.891406 0.204492 0
0.827734 0.203613 0
0.764062 0.202734 0
0.885937 0.136328 0
0.822656 0.135742 0
0.759375 0.135156 0
1.0125 0.1375 0
0.949219 0.136914 0
0.885937 0.136328 0
1.00625 0.06875 0
0.943359 0.068457 0
0.880469 0.0681641 0
1 0 0
0.9375 0 0
0.875 0 0
0.885937 0.136328 0
0.822656 0.135742 0
0.759375 0.135156 0
0.880469 0.0681641 0
0.817578 0.0678711 0
0.754687 0.0675781 0
0.875 0 0
0.8125 0 0
0.75 0 0
0.76875 0.270313 0
0.704687 0.269141 0
0.640625 0.267969 0
0.764062 0.202734 0
0.700391 0.201855 0
0.636719 0.200977 0
0.759375 0.135156 0
0.696094 0.13457 0
0.632812 0.133984 0
0.640625 0.267969 0
0.576562 0.266797 0
0.5125 0.265625 0
0.636719 0.200977 0
0.573047 0.200098 0
0.509375 0.199219 0
0.632812 0.133984 0
0.569531 0.133398 0
0.50625 0.132812 0
0.759375 0.135156 0
0.696094 0.13457 0
0.632812 0.133984 0
0.754687 0.0675781 0
0.691797 0.0672852 0
0.628906 0.0669922 0
0.75 0 0
0.6875 0 0
0.625 0 0
0.632812 0.133984 0
0.569531 0.133398 0
0.50625 0.132812 0
0.628906 0.0669922 0
0.566016 0.0666992 0
0.503125 0.0664062 0
0.625 0 0
0.5625 0 0
0.5 0 0
0.525 0.53125 0
0.459375 0.528906 0
0.39375 0.526563 0
0.521875 0.464844 0
0.456641 0.462793 0
0.391406 0.460742 0
0.51875 0.398438 0
0.453906 0.39668 0
0.389063 0.394922 0
0.39375 0.526563 0
0.328125 0.524219 0
0.2625 0.521875 0
0.391406 0.460742 0
0.326172 0.458691 0
0.260938 0.456641 0
0.389063 0.394922 0
0.324219 0.393164 0
0.259375 0.391406 0
0.51875 0.398438 0
0.453906 0.39668 0
0.389063 0.394922 0
0.515625 0.332031 0
0.451172 0.330566 0
0.386719 0.329102 0
0.5125 0.265625 0
0.448437 0.264453 0
0.384375 0.263281 0
0.389063 0.394922 0
0.324219 0.393164 0
0.259375 0.391406 0
0.386719 0.329102 0
0.322266 0.327637 0
0.257812 0.326172 0
0.384375 0.263281 0
0.320312 0.262109 0
0.25625 0.260937 0
0.2625 0.521875 0
0.196875 0.519531 0
0.13125 0.517187 0
0.260938 0.456641 0
0.195703 0.45459 0
0.130469 0.452539 0
0.259375 0.391406 0
0.194531 0.389648 0
0.129688 0.387891 0
0.13125 0.517187 0
0.065625 0.514844 0
0 0.5125 0
0.130469 0.452539 0
0.0652344 0.450488 0
0 0.448437 0
0.129688 0.387891 0
0.0648438 0.386133 0
0 0.384375 0
0.259375 0.391406 0
0.194531 0.389648 0
0.129688 0.387891 0
0.257812 0.326172 0
0.193359 0.324707 0
0.128906 0.323242 0
0.25625 0.260937 0
0.192187 0.259766 0
0.128125 0.258594 0
0.129688 0.387891 0
0.0648438 0.386133 0
0 0.384375 0
0.128906 0.323242 0
0.0644531 0.321777 0
0 0.320312 0
0.128125 0.258594 0
0.0640625 0.257422 0
0 0.25625 0
0.5125 0.265625 0
0.448437 0.264453 0
0.384375 0.263281 0
0.509375 0.199219 0
0.445703 0.19834 0
0.382031 0.197461 0
0.50625 0.132812 0
0.442969 0.132227 0
0.379688 0.131641 0
0.384375 0.263281 0
0.320312 0.262109 0
0.25625 0.260937 0
0.382031 0.197461 0
0.318359 0.196582 0
0.254687 0.195703 0
[...]
POINT_DATA 34560
VECTORS v double
1.19052 -0.22332 0
1.18176 -0.195235 0
1.17449 -0.170244 0
1.15736 -0.212425 0
1.14666 -0.187363 0
1.138 -0.164085 0
1.12107 -0.200964 0
1.10906 -0.177875 0
1.09864 -0.156354 0
1.17449 -0.170244 0
1.16854 -0.147062 0
1.16376 -0.126542 0
1.138 -0.164085 0
1.1302 -0.14272 0
1.12417 -0.123309 0
1.09864 -0.156354 0
1.08944 -0.136492 0
1.08167 -0.118258 0
1.12107 -0.200964 0
1.10906 -0.177875 0
1.09864 -0.156354 0
1.07881 -0.186125 0
1.06524 -0.165508 0
1.05346 -0.14616 0
1.03001 -0.17197 0
1.01568 -0.153504 0
1.00303 -0.136012 0
1.09864 -0.156354 0
1.08944 -0.136492 0
1.08167 -0.118258 0
1.05346 -0.14616 0
1.04287 -0.128156 0
1.03388 -0.111519 0
1.00303 -0.136012 0
0.991662 -0.119622 0
0.981818 -0.104356 0
1.16376 -0.126542 0
1.15948 -0.107867 0
1.15605 -0.0914267 0
1.12417 -0.123309 0
1.11826 -0.105702 0
1.1138 -0.0899319 0
1.08167 -0.118258 0
1.07447 -0.101694 0
1.06851 -0.0867075 0
1.15605 -0.0914267 0
1.15262 -0.0767033 0
1.14974 -0.0638543 0
1.1138 -0.0899319 0
1.10897 -0.0757865 0
1.10525 -0.0633024 0
1.06851 -0.0867075 0
1.0626 -0.0732775 0
1.05767 -0.0612879 0
1.08167 -0.118258 0
1.07447 -0.101694 0
1.06851 -0.0867075 0
1.03388 -0.111519 0
1.02554 -0.0962457 0
1.01853 -0.0823844 0
0.981818 -0.104356 0
0.972704 -0.0902812 0
0.964904 -0.0774128 0
1.06851 -0.0867075 0
1.0626 -0.0732775 0
1.05767 -0.0612879 0
1.01853 -0.0823844 0
1.01173 -0.069851 0
1.00599 -0.0585994 0
0.964904 -0.0774128 0
0.95744 -0.0657301 0
0.951037 -0.0551948 0
1.03001 -0.17197 0
1.01568 -0.153504 0
1.00303 -0.136012 0
0.975931 -0.156845 0
0.961073 -0.140436 0
0.947831 -0.124779 0
0.917395 -0.142157 0
0.902166 -0.127565 0
0.888453 -0.113561 0
1.00303 -0.136012 0
0.991662 -0.119622 0
0.981818 -0.104356 0
0.947831 -0.124779 0
0.935833 -0.110018 0
0.925313 -0.0962015 0
0.888453 -0.113561 0
0.875992 -0.100304 0
0.864949 -0.0878287 0
0.917395 -0.142157 0
0.902166 -0.127565 0
0.888453 -0.113561 0
0.853783 -0.126194 0
0.838293 -0.113476 0
0.824303 -0.101211 0
0.785509 -0.111062 0
0.76999 -0.100025 0
0.755912 -0.089321 0
0.888453 -0.113561 0
0.875992 -0.100304 0
0.864949 -0.0878287 0
0.824303 -0.101211 0
0.811538 -0.0895381 0
0.800169 -0.0785057 0
0.755912 -0.089321 0
0.743031 -0.0790868 0
0.731503 -0.069372 0
0.981818 -0.104356 0
0.972704 -0.0902812 0
0.964904 -0.0774128 0
0.925313 -0.0962015 0
0.91559 -0.0833949 0
0.907143 -0.071628 0
0.864949 -0.0878287 0
0.854766 -0.0762209 0
0.845827 -0.0655066 0
0.964904 -0.0774128 0
0.95744 -0.0657301 0
0.951037 -0.0551948 0
0.907143 -0.071628 0
0.899176 -0.0609056 0
0.892249 -0.0512018 0
0.845827 -0.0655066 0
0.837484 -0.0557163 0
0.830164 -0.0468287 0
0.864949 -0.0878287 0
0.854766 -0.0762209 0
0.845827 -0.0655066 0
0.800169 -0.0785057 0
0.789688 -0.0681916 0
0.780436 -0.0586329 0
0.731503 -0.069372 0
0.72088 -0.0602618 0
0.711455 -0.0517885 0
0.845827 -0.0655066 0
0.837484 -0.0557163 0
0.830164 -0.0468287 0
0.780436 -0.0586329 0
0.77186 -0.0498673 0
0.764302 -0.0418919 0
0.711455 -0.0517885 0
0.702775 -0.0440054 0
0.695097 -0.0369103 0
1.14974 -0.0638543 0
1.14668 -0.0524777 0
1.14393 -0.0425692 0
1.10525 -0.0633024 0
1.10108 -0.0522243 0
1.09773 -0.0424846 0
1.05767 -0.0612879 0
1.05268 -0.0506499 0
1.04846 -0.0412321 0
1.14393 -0.0425692 0
1.14088 -0.0337752 0
1.13796 -0.0260373 0
1.09773 -0.0424846 0
1.09384 -0.0338176 0
1.09051 -0.0261461 0
1.04846 -0.0412321 0
1.04398 -0.0328661 0
1.04007 -0.0253953 0
1.05767 -0.0612879 0
1.05268 -0.0506499 0
1.04846 -0.0412321 0
1.00599 -0.0585994 0
1.00033 -0.0485402 0
0.995498 -0.0396266 0
0.951037 -0.0551948 0
0.944842 -0.0457598 0
0.939489 -0.037364 0
1.04846 -0.0412321 0
1.04398 -0.0328661 0
1.04007 -0.0253953 0
0.995498 -0.0396266 0
0.990589 -0.0316756 0
0.986286 -0.024536 0
0.939489 -0.037364 0
0.93421 -0.0298626 0
0.929577 -0.0231285 0
1.13796 -0.0260373 0
1.13483 -0.0189508 0
1.13173 -0.012423 0
1.09051 -0.0261461 0
1.08687 -0.0191203 0
1.08362 -0.0125947 0
1.04007 -0.0253953 0
1.03608 -0.0185517 0
1.03255 -0.0121933 0
1.13173 -0.012423 0
1.12838 -0.0060869 0
1.125 0 0
1.08362 -0.0125947 0
1.08001 -0.00622034 0
1.07666 0 0
1.03255 -0.0121933 0
1.0288 -0.00601155 0
1.02539 0 0
1.04007 -0.0253953 0
1.03608 -0.0185517 0
1.03255 -0.0121933 0
0.986286 -0.024536 0
0.982065 -0.0179679 0
0.978343 -0.0118737 0
0.929577 -0.0231285 0
0.925132 -0.0169427 0
0.921231 -0.0111913 0
1.03255 -0.0121933 0
1.0288 -0.00601155 0
1.02539 0 0
0.978343 -0.0118737 0
0.974578 -0.00590859 0
0.971191 0 0
0.921231 -0.0111913 0
0.917422 -0.00555102 0
0.914062 0 0
0.951037 -0.0551948 0
0.944842 -0.0457598 0
0.939489 -0.037364 0
0.892249 -0.0512018 0
0.885662 -0.0424872 0
0.87991 -0.0347123 0
0.830164 -0.0468287 0
0.823288 -0.0388405 0
0.817242 -0.0317065 0
0.939489 -0.037364 0
0.93421 -0.0298626 0
0.929577 -0.0231285 0
0.87991 -0.0347123 0
0.874392 -0.0277661 0
0.86953 -0.0215336 0
0.817242 -0.0317065 0
0.811557 -0.025345 0
0.806531 -0.0196481 0
0.830164 -0.0468287 0
0.823288 -0.0388405 0
0.817242 -0.0317065 0
0.764302 -0.0418919 0
0.757269 -0.0347134 0
0.751063 -0.028302 0
0.695097 -0.0369103 0
0.688012 -0.0305281 0
0.681744 -0.0248328 0
0.817242 -0.0317065 0
0.811557 -0.025345 0
0.806531 -0.0196481 0
0.751063 -0.028302 0
0.745316 -0.0225961 0
0.740232 -0.0175073 0
0.681744 -0.0248328 0
0.676018 -0.0197903 0
0.670949 -0.0153197 0
0.929577 -0.0231285 0
0.925132 -0.0169427 0
0.921231 -0.0111913 0
0.86953 -0.0215336 0
0.864979 -0.0158082 0
0.861 -0.0104771 0
0.806531 -0.0196481 0
0.80191 -0.0144315 0
0.797875 -0.00958054 0
0.921231 -0.0111913 0
0.917422 -0.00555102 0
0.914062 0 0
0.861 -0.0104771 0
0.85726 -0.00522108 0
0.854004 0 0
0.797875 -0.00958054 0
0.794186 -0.00478291 0
0.791016 0 0
0.806531 -0.0196481 0
0.80191 -0.0144315 0
0.797875 -0.00958054 0
0.740232 -0.0175073 0
0.735635 -0.0128669 0
0.731642 -0.00856396 0
0.670949 -0.0153197 0
0.666424 -0.0112749 0
0.662502 -0.00754162 0
0.797875 -0.00958054 0
0.794186 -0.00478291 0
0.791016 0 0
0.731642 -0.00856396 0
0.728097 -0.00428806 0
0.725098 0 0
0.662502 -0.00754162 0
0.659095 -0.0038072 0
0.65625 0 0
0.785509 -0.111062 0
0.76999 -0.100025 0
0.755912 -0.089321 0
0.712877 -0.0950575 0
0.697333 -0.0856834 0
0.683225 -0.076554 0
0.636194 -0.0797859 0
0.620683 -0.0719727 0
0.606589 -0.0643307 0
0.755912 -0.089321 0
0.743031 -0.0790868 0
0.731503 -0.069372 0
0.683225 -0.076554 0
0.670287 -0.0677919 0
0.658696 -0.0594487 0
0.606589 -0.0643307 0
0.593665 -0.0569619 0
0.582085 -0.0499218 0
0.636194 -0.0797859 0
0.620683 -0.0719727 0
0.606589 -0.0643307 0
0.555719 -0.0634723 0
0.540182 -0.0572429 0
0.526077 -0.0511359 0
0.470776 -0.0478547 0
0.455372 -0.0431437 0
0.441379 -0.0385222 0
0.606589 -0.0643307 0
0.593665 -0.0569619 0
0.582085 -0.0499218 0
0.526077 -0.0511359 0
0.513141 -0.0452299 0
0.501576 -0.0395766 0
0.441379 -0.0385222 0
0.42855 -0.0340391 0
0.417097 -0.0297446 0
0.731503 -0.069372 0
0.72088 -0.0602618 0
0.711455 -0.0517885 0
0.658696 -0.0594487 0
0.648027 -0.0516028 0
0.638551 -0.0442862 0
0.582085 -0.0499218 0
0.571463 -0.0432811 0
0.562032 -0.037073 0
0.711455 -0.0517885 0
0.702775 -0.0440054 0
0.695097 -0.0369103 0
0.638551 -0.0442862 0
0.629871 -0.0375543 0
0.622192 -0.0314139 0
0.562032 -0.037073 0
0.553452 -0.0313591 0
0.545876 -0.0261472 0
0.582085 -0.0499218 0
0.571463 -0.0432811 0
0.562032 -0.037073 0
0.501576 -0.0395766 0
0.49102 -0.0342315 0
0.481688 -0.0292227 0
0.417097 -0.0297446 0
0.406702 -0.0256732 0
0.397555 -0.0218515 0
0.562032 -0.037073 0
0.553452 -0.0313591 0
0.545876 -0.0261472 0
0.481688 -0.0292227 0
0.473272 -0.0246078 0
0.465886 -0.020402 0
0.397555 -0.0218515 0
0.389395 -0.0183292 0
0.382297 -0.0151231 0
0.470776 -0.0478547 0
0.455372 -0.0431437 0
0.441379 -0.0385222 0
0.379491 -0.0314426 0
0.364479 -0.0282199 0
0.350895 -0.0250769 0
0.274249 -0.0165515 0
0.261092 -0.0148164 0
0.249288 -0.0131395 0
0.441379 -0.0385222 0
0.42855 -0.0340391 0
0.417097 -0.0297446 0
0.350895 -0.0250769 0
0.338464 -0.0220422 0
0.327421 -0.0191537 0
0.249288 -0.0131395 0
0.23856 -0.0115171 0
0.229121 -0.00998768 0
0.274249 -0.0165515 0
0.261092 -0.0148164 0
0.249288 -0.0131395 0
0.146836 -0.00473065 0
0.138556 -0.00417601 0
0.13131 -0.00365648 0
0 0 0
0 0 0
0 0 0
0.249288 -0.0131395 0
0.23856 -0.0115171 0
0.229121 -0.00998768 0
0.13131 -0.00365648 0
0.124768 -0.00315029 0
0.119144 -0.00268714 0
0 0 0
0 0 0
0 0 0
0.417097 -0.0297446 0
0.406702 -0.0256732 0
0.397555 -0.0218515 0
0.327421 -0.0191537 0
0.317468 -0.0164321 0
0.308776 -0.0138881 0
0.229121 -0.00998768 0
0.220703 -0.00855141 0
0.213434 -0.0072182 0
0.397555 -0.0218515 0
0.389395 -0.0183292 0
0.382297 -0.0151231 0
0.308776 -0.0138881 0
0.301122 -0.0115563 0
0.294548 -0.00944746 0
0.213434 -0.0072182 0
0.207117 -0.00599985 0
0.201764 -0.00490547 0
0.229121 -0.00998768 0
0.220703 -0.00855141 0
0.213434 -0.0072182 0
0.119144 -0.00268714 0
0.114185 -0.00225757 0
0.109982 -0.00186923 0
0 0 0
0 0 0
0 0 0
0.213434 -0.0072182 0
0.207117 -0.00599985 0
0.201764 -0.00490547 0
0.109982 -0.00186923 0
0.106386 -0.00152208 0
0.103367 -0.001219 0
0 0 0
0 0 0
0 0 0
0.695097 -0.0369103 0
0.688012 -0.0305281 0
0.681744 -0.0248328 0
0.622192 -0.0314139 0
0.615166 -0.0258931 0
0.608956 -0.0209755 0
0.545876 -0.0261472 0
0.539008 -0.0214711 0
0.532953 -0.0173173 0
0.681744 -0.0248328 0
0.676018 -0.0197903 0
0.670949 -0.0153197 0
0.608956 -0.0209755 0
0.603351 -0.0166437 0
0.598397 -0.0128375 0
0.532953 -0.0173173 0
0.527558 -0.0136891 0
0.522804 -0.0105365 0
0.545876 -0.0261472 0
0.539008 -0.0214711 0
0.532953 -0.0173173 0
0.465886 -0.020402 0
0.45927 -0.0166382 0
0.453482 -0.013307 0
0.382297 -0.0151231 0
0.37604 -0.0122651 0
0.370631 -0.00974573 0
0.532953 -0.0173173 0
0.527558 -0.0136891 0
0.522804 -0.0105365 0
0.453482 -0.013307 0
0.4484 -0.0104208 0
0.443955 -0.00794842 0
0.370631 -0.00974573 0
0.365975 -0.00758726 0
0.361953 -0.00576851 0
0.670949 -0.0153197 0
0.666424 -0.0112749 0
0.662502 -0.00754162 0
0.598397 -0.0128375 0
0.594032 -0.0094301 0
0.590269 -0.00631496 0
0.522804 -0.0105365 0
0.518663 -0.00775743 0
0.515107 -0.00524936 0
0.662502 -0.00754162 0
0.659095 -0.0038072 0
0.65625 0 0
0.590269 -0.00631496 0
0.587083 -0.00318935 0
0.584473 0 0
0.515107 -0.00524936 0
0.51215 -0.0027082 0
0.509766 0 0
0.522804 -0.0105365 0
0.518663 -0.00775743 0
0.515107 -0.00524936 0
0.443955 -0.00794842 0
0.440132 -0.0058102 0
0.436871 -0.00392579 0
0.361953 -0.00576851 0
0.358545 -0.00423424 0
0.355658 -0.00291825 0
0.515107 -0.00524936 0
0.51215 -0.0027082 0
0.509766 0 0
0.436871 -0.00392579 0
0.434215 -0.00202055 0
0.432129 0 0
0.355658 -0.00291825 0
0.353344 -0.00157887 0
0.351562 0 0
0.382297 -0.0151231 0
0.37604 -0.0122651 0
0.370631 -0.00974573 0
0.294548 -0.00944746 0
0.288874 -0.00758474 0
0.284053 -0.00595143 0
0.201764 -0.00490547 0
0.19724 -0.00394316 0
0.193457 -0.0031009 0
0.370631 -0.00974573 0
0.365975 -0.00758726 0
0.361953 -0.00576851 0
0.284053 -0.00595143 0
0.280011 -0.00456626 0
0.276588 -0.00342161 0
0.193457 -0.0031009 0
0.190366 -0.00238926 0
0.187798 -0.00180991 0
0.201764 -0.00490547 0
0.19724 -0.00394316 0
0.193457 -0.0031009 0
0.103367 -0.001219 0
0.100872 -0.000961866 0
0.0987771 -0.000742098 0
0 0 0
0 0 0
0 0 0
0.193457 -0.0031009 0
0.190366 -0.00238926 0
0.187798 -0.00180991 0
0.0987771 -0.000742098 0
0.0971076 -0.000560358 0
0.0956861 -0.000421392 0
0 0 0
0 0 0
0 0 0
0.361953 -0.00576851 0
0.358545 -0.00423424 0
0.355658 -0.00291825 0
0.276588 -0.00342161 0
0.273752 -0.0024757 0
0.271376 -0.00169369 0
0.187798 -0.00180991 0
0.185725 -0.00133843 0
0.184004 -0.00095544 0
0.355658 -0.00291825 0
0.353344 -0.00157887 0
0.351562 0 0
0.271376 -0.00169369 0
0.269488 -0.000904073 0
0.268066 0 0
0.184004 -0.00095544 0
0.182652 -0.000577724 0
0.181641 0 0
0.187798 -0.00180991 0
0.185725 -0.00133843 0
0.184004 -0.00095544 0
0.0956861 -0.000421392 0
0.0945662 -0.000310498 0
0.0936024 -0.000224209 0
0 0 0
0 0 0
0 0 0
0.184004 -0.00095544 0
0.182652 -0.000577724 0
0.181641 0 0
0.0936024 -0.000224209 0
0.092836 -0.000118727 0
0.0922852 0 0
0 0 0
0 0 0
0 0 0
1.59763 -0.452194 0
1.55825 -0.463591 0
1.51943 -0.470173 0
1.54099 -0.403051 0
1.50475 -0.414344 0
1.46754 -0.421057 0
1.4765 -0.359457 0
1.44457 -0.370861 0
1.41168 -0.378331 0
1.51943 -0.470173 0
1.47972 -0.470853 0
1.44104 -0.467033 0
1.46754 -0.421057 0
1.43105 -0.423315 0
1.39438 -0.421065 0
1.41168 -0.378331 0
1.37962 -0.381848 0
1.34732 -0.381396 0
1.4765 -0.359457 0
1.44457 -0.370861 0
1.41168 -0.378331 0
1.42209 -0.322507 0
1.39326 -0.332052 0
1.3636 -0.338402 0
1.35941 -0.285129 0
1.3319 -0.293899 0
1.30341 -0.299867 0
1.41168 -0.378331 0
1.37962 -0.381848 0
1.34732 -0.381396 0
1.3636 -0.338402 0
1.33406 -0.341357 0
1.30424 -0.341078 0
1.30341 -0.299867 0
1.27535 -0.303068 0
1.24694 -0.303459 0
1.44104 -0.467033 0
1.40452 -0.458058 0
1.36952 -0.44484 0
1.39438 -0.421065 0
1.36077 -0.414665 0
1.32786 -0.404796 0
1.34732 -0.381396 0
1.31763 -0.377372 0
1.28831 -0.369894 0
1.36952 -0.44484 0
1.33798 -0.428385 0
1.30832 -0.409021 0
1.32786 -0.404796 0
1.29882 -0.391848 0
1.27107 -0.376159 0
1.28831 -0.369894 0
1.26214 -0.35947 0
1.2368 -0.34631 0
1.34732 -0.381396 0
1.31763 -0.377372 0
1.28831 -0.369894 0
1.30424 -0.341078 0
1.27599 -0.33768 0
1.248 -0.331422 0
1.24694 -0.303459 0
1.22014 -0.301271 0
1.19367 -0.29661 0
1.28831 -0.369894 0
1.26214 -0.35947 0
1.2368 -0.34631 0
1.248 -0.331422 0
1.22237 -0.322697 0
1.19754 -0.311711 0
1.19367 -0.29661 0
1.16942 -0.2898 0
1.14602 -0.28094 0
1.35941 -0.285129 0
1.3319 -0.293899 0
1.30341 -0.299867 0
1.28906 -0.253118 0
1.26358 -0.261287 0
1.23721 -0.266997 0
1.22198 -0.222318 0
1.19794 -0.230017 0
1.17303 -0.235551 0
1.30341 -0.299867 0
1.27535 -0.303068 0
1.24694 -0.303459 0
1.23721 -0.266997 0
1.21141 -0.270229 0
1.18525 -0.270982 0
1.17303 -0.235551 0
1.14856 -0.238871 0
1.1237 -0.239996 0
1.22198 -0.222318 0
1.19794 -0.230017 0
1.17303 -0.235551 0
1.15433 -0.19239 0
1.1311 -0.199354 0
1.10699 -0.204422 0
1.08188 -0.163631 0
1.05937 -0.170048 0
1.03604 -0.17487 0
1.17303 -0.235551 0
1.14856 -0.238871 0
1.1237 -0.239996 0
1.10699 -0.204422 0
1.08326 -0.20761 0
1.05912 -0.20891 0
1.03604 -0.17487 0
1.01305 -0.178094 0
0.989697 -0.179701 0
1.24694 -0.303459 0
1.22014 -0.301271 0
1.19367 -0.29661 0
1.18525 -0.270982 0
1.16055 -0.269421 0
1.136 -0.265634 0
1.1237 -0.239996 0
1.09999 -0.239056 0
1.07638 -0.236137 0
1.19367 -0.29661 0
1.16942 -0.2898 0
1.14602 -0.28094 0
1.136 -0.265634 0
1.11334 -0.259908 0
1.09128 -0.252317 0
1.07638 -0.236137 0
1.05437 -0.231488 0
1.03291 -0.225175 0
1.1237 -0.239996 0
1.09999 -0.239056 0
1.07638 -0.236137 0
1.05912 -0.20891 0
1.03603 -0.208468 0
1.01303 -0.206297 0
0.989697 -0.179701 0
0.967249 -0.179792 0
0.944892 -0.178376 0
1.07638 -0.236137 0
1.05437 -0.231488 0
1.03291 -0.225175 0
1.01303 -0.206297 0
0.991484 -0.202636 0
0.970473 -0.197491 0
0.944892 -0.178376 0
0.923794 -0.175634 0
0.903195 -0.171573 0
1.30832 -0.409021 0
1.28329 -0.387906 0
1.26059 -0.364645 0
1.27107 -0.376159 0
1.24798 -0.358326 0
1.22661 -0.339024 0
1.2368 -0.34631 0
1.21507 -0.331197 0
1.19455 -0.314336 0
1.26059 -0.364645 0
1.24188 -0.341134 0
1.22559 -0.316842 0
1.22661 -0.339024 0
1.20909 -0.318764 0
1.19344 -0.297547 0
1.19455 -0.314336 0
1.17718 -0.296337 0
1.1613 -0.277372 0
1.2368 -0.34631 0
1.21507 -0.331197 0
1.19455 -0.314336 0
1.19754 -0.311711 0
1.17569 -0.298992 0
1.15511 -0.284687 0
1.14602 -0.28094 0
1.1253 -0.270445 0
1.10581 -0.258472 0
1.19455 -0.314336 0
1.17718 -0.296337 0
1.1613 -0.277372 0
1.15511 -0.284687 0
1.13741 -0.269389 0
1.12129 -0.253205 0
1.10581 -0.258472 0
1.0888 -0.245446 0
1.07321 -0.231461 0
1.22559 -0.316842 0
1.21312 -0.292981 0
1.20319 -0.26887 0
1.19344 -0.297547 0
1.18133 -0.276016 0
1.17115 -0.254451 0
1.1613 -0.277372 0
1.14837 -0.258141 0
1.13717 -0.238742 0
1.20319 -0.26887 0
1.19582 -0.245746 0
1.19052 -0.22332 0
1.17115 -0.254451 0
1.16331 -0.233302 0
1.15736 -0.212425 0
1.13717 -0.238742 0
1.12824 -0.219653 0
1.12107 -0.200964 0
1.1613 -0.277372 0
1.14837 -0.258141 0
1.13717 -0.238742 0
1.12129 -0.253205 0
1.10792 -0.236638 0
1.09626 -0.219717 0
1.07321 -0.231461 0
1.05996 -0.216933 0
1.04826 -0.201978 0
1.13717 -0.238742 0
1.12824 -0.219653 0
1.12107 -0.200964 0
1.09626 -0.219717 0
1.0867 -0.202861 0
1.07881 -0.186125 0
1.04826 -0.201978 0
1.03835 -0.186961 0
1.03001 -0.17197 0
1.14602 -0.28094 0
1.1253 -0.270445 0
1.10581 -0.258472 0
1.09128 -0.252317 0
1.07145 -0.243269 0
1.0526 -0.232861 0
1.03291 -0.225175 0
1.01341 -0.217546 0
0.994853 -0.20868 0
1.10581 -0.258472 0
1.0888 -0.245446 0
1.07321 -0.231461 0
1.0526 -0.232861 0
1.03587 -0.221514 0
1.02038 -0.209255 0
0.994853 -0.20868 0
0.978244 -0.198929 0
0.962846 -0.188329 0
1.03291 -0.225175 0
1.01341 -0.217546 0
0.994853 -0.20868 0
0.970473 -0.197491 0
0.951214 -0.191174 0
0.932852 -0.183713 0
0.903195 -0.171573 0
0.884112 -0.166443 0
0.865877 -0.160276 0
0.994853 -0.20868 0
0.978244 -0.198929 0
0.962846 -0.188329 0
0.932852 -0.183713 0
0.916232 -0.175432 0
0.900755 -0.166345 0
0.865877 -0.160276 0
0.849202 -0.15334 0
0.833635 -0.145655 0
1.07321 -0.231461 0
1.05996 -0.216933 0
1.04826 -0.201978 0
1.02038 -0.209255 0
1.007 -0.196523 0
0.995034 -0.183382 0
0.962846 -0.188329 0
0.949343 -0.177235 0
0.937193 -0.165699 0
1.04826 -0.201978 0
1.03835 -0.186961 0
1.03001 -0.17197 0
0.995034 -0.183382 0
0.984753 -0.170161 0
0.975931 -0.156845 0
0.937193 -0.165699 0
0.926602 -0.153995 0
0.917395 -0.142157 0
0.962846 -0.188329 0
0.949343 -0.177235 0
0.937193 -0.165699 0
0.900755 -0.166345 0
0.886979 -0.156774 0
0.874499 -0.146752 0
0.833635 -0.145655 0
0.819627 -0.13749 0
0.806892 -0.128887 0
0.937193 -0.165699 0
0.926602 -0.153995 0
0.917395 -0.142157 0
0.874499 -0.146752 0
0.863471 -0.13655 0
0.853783 -0.126194 0
0.806892 -0.128887 0
0.795538 -0.120068 0
0.785509 -0.111062 0
1.08188 -0.163631 0
1.05937 -0.170048 0
1.03604 -0.17487 0
1.00848 -0.137693 0
0.986567 -0.14334 0
0.963905 -0.147636 0
0.934321 -0.111809 0
0.91265 -0.11687 0
0.89022 -0.12079 0
1.03604 -0.17487 0
1.01305 -0.178094 0
0.989697 -0.179701 0
0.963905 -0.147636 0
0.941452 -0.150562 0
0.918652 -0.152107 0
0.89022 -0.12079 0
0.86795 -0.123557 0
0.845329 -0.125161 0
0.934321 -0.111809 0
0.91265 -0.11687 0
0.89022 -0.12079 0
0.857323 -0.0869458 0
0.83598 -0.0913102 0
0.813845 -0.0947278 0
0.77381 -0.0628794 0
0.75302 -0.0665428 0
0.731333 -0.0694671 0
0.89022 -0.12079 0
0.86795 -0.123557 0
0.845329 -0.125161 0
0.813845 -0.0947278 0
0.791792 -0.0971968 0
0.769352 -0.0987094 0
0.731333 -0.0694671 0
0.709654 -0.0716512 0
0.687509 -0.0730804 0
0.989697 -0.179701 0
0.967249 -0.179792 0
0.944892 -0.178376 0
0.918652 -0.152107 0
0.896566 -0.152354 0
0.874555 -0.151315 0
0.845329 -0.125161 0
0.823313 -0.125676 0
0.801368 -0.125107 0
0.944892 -0.178376 0
0.923794 -0.175634 0
0.903195 -0.171573 0
0.874555 -0.151315 0
0.853603 -0.149149 0
0.833129 -0.145855 0
0.801368 -0.125107 0
0.780358 -0.123584 0
0.759815 -0.121106 0
0.845329 -0.125161 0
0.823313 -0.125676 0
0.801368 -0.125107 0
0.769352 -0.0987094 0
0.747408 -0.0993298 0
0.72549 -0.0990509 0
0.687509 -0.0730804 0
0.665755 -0.0738083 0
0.643962 -0.073823 0
0.801368 -0.125107 0
0.780358 -0.123584 0
0.759815 -0.121106 0
0.72549 -0.0990509 0
0.704375 -0.0979868 0
0.683678 -0.0961307 0
0.643962 -0.073823 0
0.622852 -0.0732183 0
0.602107 -0.0719838 0
0.77381 -0.0628794 0
0.75302 -0.0665428 0
0.731333 -0.0694671 0
0.676021 -0.0406473 0
0.656742 -0.0434075 0
0.636377 -0.0456322 0
0.536362 -0.0197723 0
0.520546 -0.0214982 0
0.503428 -0.0229202 0
0.731333 -0.0694671 0
0.709654 -0.0716512 0
0.687509 -0.0730804 0
0.636377 -0.0456322 0
0.615796 -0.0473225 0
0.59459 -0.0484618 0
0.503428 -0.0229202 0
0.485866 -0.024046 0
0.467501 -0.024848 0
0.536362 -0.0197723 0
0.520546 -0.0214982 0
0.503428 -0.0229202 0
0.319119 -0.00606105 0
0.309471 -0.00663109 0
0.298688 -0.00708142 0
0 0 0
0 0 0
0 0 0
0.503428 -0.0229202 0
0.485866 -0.024046 0
0.467501 -0.024848 0
0.298688 -0.00708142 0
0.287442 -0.00744922 0
0.275475 -0.00768677 0
0 0 0
0 0 0
0 0 0
0.687509 -0.0730804 0
0.665755 -0.0738083 0
0.643962 -0.073823 0
0.59459 -0.0484618 0