# vtk DataFile Version 3.0
#This file was generated by the deal.II library on 2025/1/7 at 22:29:45
ASCII
DATASET UNSTRUCTURED_GRID

POINTS 34560 double
1.1 1.1 0
1.03125 1.09531 0
0.9625 1.09063 0
1.09375 1.03125 0
1.02539 1.02686 0
0.957031 1.02246 0
1.0875 0.9625 0
1.01953 0.958398 0
0.951563 0.954297 0
0.9625 1.09063 0
0.89375 1.08594 0
0.825 1.08125 0
0.957031 1.02246 0
0.888672 1.01807 0
0.820312 1.01367 0
0.951563 0.954297 0
0.883594 0.950195 0
0.815625 0.946094 0
1.0875 0.9625 0
1.01953 0.958398 0
0.951563 0.954297 0
1.08125 0.89375 0
1.01367 0.889941 0
0.946094 0.886133 0
1.075 0.825 0
1.00781 0.821484 0
0.940625 0.817969 0
0.951563 0.954297 0
0.883594 0.950195 0
0.815625 0.946094 0
0.946094 0.886133 0
0.878516 0.882324 0
0.810938 0.878516 0
0.940625 0.817969 0
0.873438 0.814453 0
0.80625 0.810937 0
0.825 1.08125 0
0.75625 1.07656 0
0.6875 1.07187 0
0.820312 1.01367 0
0.751953 1.00928 0
0.683594 1.00488 0
0.815625 0.946094 0
0.747656 0.941992 0
0.679688 0.937891 0
0.6875 1.07187 0
0.61875 1.06719 0
0.55 1.0625 0
0.683594 1.00488 0
0.615234 1.00049 0
0.546875 0.996094 0
0.679688 0.937891 0
0.611719 0.933789 0
0.54375 0.929688 0
0.815625 0.946094 0
0.747656 0.941992 0
0.679688 0.937891 0
0.810938 0.878516 0
0.743359 0.874707 0
0.675781 0.870898 0
0.80625 0.810937 0
0.739063 0.807422 0
0.671875 0.803906 0
0.679688 0.937891 0
0.611719 0.933789 0
0.54375 0.929688 0
0.675781 0.870898 0
0.608203 0.86709 0
0.540625 0.863281 0
0.671875 0.803906 0
0.604688 0.800391 0
0.5375 0.796875 0
1.075 0.825 0
1.00781 0.821484 0
0.940625 0.817969 0
1.06875 0.75625 0
1.00195 0.753027 0
0.935156 0.749805 0
1.0625 0.6875 0
0.996094 0.68457 0
0.929688 0.681641 0
0.940625 0.817969 0
0.873438 0.814453 0
0.80625 0.810937 0
0.935156 0.749805 0
0.868359 0.746582 0
0.801563 0.743359 0
0.929688 0.681641 0
0.863281 0.678711 0
0.796875 0.675781 0
1.0625 0.6875 0
0.996094 0.68457 0
0.929688 0.681641 0
1.05625 0.61875 0
0.990234 0.616113 0
0.924219 0.613477 0
1.05 0.55 0
0.984375 0.547656 0
0.91875 0.545313 0
0.929688 0.681641 0
0.863281 0.678711 0
0.796875 0.675781 0
0.924219 0.613477 0
0.858203 0.61084 0
0.792188 0.608203 0
0.91875 0.545313 0
0.853125 0.542969 0
0.7875 0.540625 0
0.80625 0.810937 0
0.739063 0.807422 0
0.671875 0.803906 0
0.801563 0.743359 0
0.734766 0.740137 0
0.667969 0.736914 0
0.796875 0.675781 0
0.730469 0.672852 0
0.664062 0.669922 0
0.671875 0.803906 0
0.604688 0.800391 0
0.5375 0.796875 0
0.667969 0.736914 0
0.601172 0.733691 0
0.534375 0.730469 0
0.664062 0.669922 0
0.597656 0.666992 0
0.53125 0.664062 0
0.796875 0.675781 0
0.730469 0.672852 0
0.664062 0.669922 0
0.792188 0.608203 0
0.726172 0.605566 0
0.660156 0.60293 0
0.7875 0.540625 0
0.721875 0.538281 0
0.65625 0.535937 0
0.664062 0.669922 0
0.597656 0.666992 0
0.53125 0.664062 0
0.660156 0.60293 0
0.594141 0.600293 0
0.528125 0.597656 0
0.65625 0.535937 0
0.590625 0.533594 0
0.525 0.53125 0
0.55 1.0625 0
0.48125 1.05781 0
0.4125 1.05313 0
0.546875 0.996094 0
0.478516 0.991699 0
0.410156 0.987305 0
0.54375 0.929688 0
0.475781 0.925586 0
0.407813 0.921484 0
0.4125 1.05313 0
0.34375 1.04844 0
0.275 1.04375 0
0.410156 0.987305 0
0.341797 0.98291 0
0.273438 0.978516 0
0.407813 0.921484 0
0.339844 0.917383 0
0.271875 0.913281 0
0.54375 0.929688 0
0.475781 0.925586 0
0.407813 0.921484 0
0.540625 0.863281 0
0.473047 0.859473 0
0.405469 0.855664 0
0.5375 0.796875 0
0.470313 0.793359 0
0.403125 0.789844 0
0.407813 0.921484 0
0.339844 0.917383 0
0.271875 0.913281 0
0.405469 0.855664 0
0.337891 0.851855 0
0.270313 0.848047 0
0.403125 0.789844 0
0.335938 0.786328 0
0.26875 0.782813 0
0.275 1.04375 0
0.20625 1.03906 0
0.1375 1.03437 0
0.273438 0.978516 0
0.205078 0.974121 0
0.136719 0.969727 0
0.271875 0.913281 0
0.203906 0.90918 0
0.135938 0.905078 0
0.1375 1.03437 0
0.06875 1.02969 0
0 1.025 0
0.136719 0.969727 0
0.0683594 0.965332 0
0 0.960937 0
0.135938 0.905078 0
0.0679688 0.900977 0
0 0.896875 0
0.271875 0.913281 0
0.203906 0.90918 0
0.135938 0.905078 0
0.270313 0.848047 0
0.202734 0.844238 0
0.135156 0.84043 0
0.26875 0.782813 0
0.201563 0.779297 0
0.134375 0.775781 0
0.135938 0.905078 0
0.0679688 0.900977 0
0 0.896875 0
0.135156 0.84043 0
0.0675781 0.836621 0
0 0.832812 0
0.134375 0.775781 0
0.0671875 0.772266 0
0 0.76875 0
0.5375 0.796875 0
0.470313 0.793359 0
0.403125 0.789844 0
0.534375 0.730469 0
0.467578 0.727246 0
0.400781 0.724023 0
0.53125 0.664062 0
0.464844 0.661133 0
0.398438 0.658203 0
0.403125 0.789844 0
0.335938 0.786328 0
0.26875 0.782813 0
0.400781 0.724023 0
0.333984 0.720801 0
0.267188 0.717578 0
0.398438 0.658203 0
0.332031 0.655273 0
0.265625 0.652344 0
0.53125 0.664062 0
0.464844 0.661133 0
0.398438 0.658203 0
0.528125 0.597656 0
0.462109 0.59502 0
0.396094 0.592383 0
0.525 0.53125 0
0.459375 0.528906 0
0.39375 0.526563 0
0.398438 0.658203 0
0.332031 0.655273 0
0.265625 0.652344 0
0.396094 0.592383 0
0.330078 0.589746 0
0.264062 0.587109 0
0.39375 0.526563 0
0.328125 0.524219 0
0.2625 0.521875 0
0.26875 0.782813 0
0.201563 0.779297 0
0.134375 0.775781 0
0.267188 0.717578 0
0.200391 0.714355 0
0.133594 0.711133 0
0.265625 0.652344 0
0.199219 0.649414 0
0.132812 0.646484 0
0.134375 0.775781 0
0.0671875 0.772266 0
0 0.76875 0
0.133594 0.711133 0
0.0667969 0.70791 0
0 0.704687 0
0.132812 0.646484 0
0.0664062 0.643555 0
0 0.640625 0
0.265625 0.652344 0
0.199219 0.649414 0
0.132812 0.646484 0
0.264062 0.587109 0
0.198047 0.584473 0
0.132031 0.581836 0
0.2625 0.521875 0
0.196875 0.519531 0
0.13125 0.517187 0
0.132812 0.646484 0
0.0664062 0.643555 0
0 0.640625 0
0.132031 0.581836 0
0.0660156 0.579199 0
0 0.576562 0
0.13125 0.517187 0
0.065625 0.514844 0
0 0.5125 0
1.05 0.55 0
0.984375 0.547656 0
0.91875 0.545313 0
1.04375 0.48125 0
0.978516 0.479199 0
0.913281 0.477148 0
1.0375 0.4125 0
0.972656 0.410742 0
0.907813 0.408984 0
0.91875 0.545313 0
0.853125 0.542969 0
0.7875 0.540625 0
0.913281 0.477148 0
0.848047 0.475098 0
0.782813 0.473047 0
0.907813 0.408984 0
0.842969 0.407227 0
0.778125 0.405469 0
1.0375 0.4125 0
0.972656 0.410742 0
0.907813 0.408984 0
1.03125 0.34375 0
0.966797 0.342285 0
0.902344 0.34082 0
1.025 0.275 0
0.960937 0.273828 0
0.896875 0.272656 0
0.907813 0.408984 0
0.842969 0.407227 0
0.778125 0.405469 0
0.902344 0.34082 0
0.837891 0.339355 0
0.773438 0.337891 0
0.896875 0.272656 0
0.832812 0.271484 0
0.76875 0.270313 0
0.7875 0.540625 0
0.721875 0.538281 0
0.65625 0.535937 0
0.782813 0.473047 0
0.717578 0.470996 0
0.652344 0.468945 0
0.778125 0.405469 0
0.713281 0.403711 0
0.648438 0.401953 0
0.65625 0.535937 0
0.590625 0.533594 0
0.525 0.53125 0
0.652344 0.468945 0
0.587109 0.466895 0
0.521875 0.464844 0
0.648438 0.401953 0
0.583594 0.400195 0
0.51875 0.398438 0
0.778125 0.405469 0
0.713281 0.403711 0
0.648438 0.401953 0
0.773438 0.337891 0
0.708984 0.336426 0
0.644531 0.334961 0
0.76875 0.270313 0
0.704687 0.269141 0
0.640625 0.267969 0
0.648438 0.401953 0
0.583594 0.400195 0
0.51875 0.398438 0
0.644531 0.334961 0
0.580078 0.333496 0
0.515625 0.332031 0
0.640625 0.267969 0
0.576562 0.266797 0
0.5125 0.265625 0
1.025 0.275 0
0.960937 0.273828 0
0.896875 0.272656 0
1.01875 0.20625 0
0.955078 0.205371 0
0.891406 0.204492 0
1.0125 0.1375 0
0.949219 0.136914 0
0.885937 0.136328 0
0.896875 0.272656 0
0.832812 0.271484 0
0.76875 0.270313 0
0.891406 0.204492 0
0.827734 0.203613 0
0.764062 0.202734 0
0.885937 0.136328 0
0.822656 0.135742 0
0.759375 0.135156 0
1.0125 0.1375 0
0.949219 0.136914 0
0.885937 0.136328 0
1.00625 0.06875 0
0.943359 0.068457 0
0.880469 0.0681641 0
1 0 0
0.9375 0 0
0.875 0 0
0.885937 0.136328 0
0.822656 0.135742 0
0.759375 0.135156 0
0.880469 0.0681641 0
0.817578 0.0678711 0
0.754687 0.0675781 0
0.875 0 0
0.8125 0 0
0.75 0 0
0.76875 0.270313 0
0.704687 0.269141 0
0.640625 0.267969 0
0.764062 0.202734 0
0.700391 0.201855 0
0.636719 0.200977 0
0.759375 0.135156 0
0.696094 0.13457 0
0.632812 0.133984 0
0.640625 0.267969 0
0.576562 0.266797 0
0.5125 0.265625 0
0.636719 0.200977 0
0.573047 0.200098 0
0.509375 0.199219 0
0.632812 0.133984 0
0.569531 0.133398 0
0.50625 0.132812 0
0.759375 0.135156 0
0.696094 0.13457 0
0.632812 0.133984 0
0.754687 0.0675781 0
0.691797 0.0672852 0
0.628906 0.0669922 0
0.75 0 0
0.6875 0 0
0.625 0 0
0.632812 0.133984 0
0.569531 0.133398 0
0.50625 0.132812 0
0.628906 0.0669922 0
0.566016 0.0666992 0
0.503125 0.0664062 0
0.625 0 0
0.5625 0 0
0.5 0 0
0.525 0.53125 0
0.459375 0.528906 0
0.39375 0.526563 0
0.521875 0.464844 0
0.456641 0.462793 0
0.391406 0.460742 0
0.51875 0.398438 0
0.453906 0.39668 0
0.389063 0.394922 0
0.39375 0.526563 0
0.328125 0.524219 0
0.2625 0.521875 0
0.391406 0.460742 0
0.326172 0.458691 0
0.260938 0.456641 0
0.389063 0.394922 0
0.324219 0.393164 0
0.259375 0.391406 0
0.51875 0.398438 0
0.453906 0.39668 0
0.389063 0.394922 0
0.515625 0.332031 0
0.451172 0.330566 0
0.386719 0.329102 0
0.5125 0.265625 0
0.448437 0.264453 0
0.384375 0.263281 0
0.389063 0.394922 0
0.324219 0.393164 0
0.259375 0.391406 0
0.386719 0.329102 0
0.322266 0.327637 0
0.257812 0.326172 0
0.384375 0.263281 0
0.320312 0.262109 0
0.25625 0.260937 0
0.2625 0.521875 0
0.196875 0.519531 0
0.13125 0.517187 0
0.260938 0.456641 0
0.195703 0.45459 0
0.130469 0.452539 0
0.259375 0.391406 0
0.194531 0.389648 0
0.129688 0.387891 0
0.13125 0.517187 0
0.065625 0.514844 0
0 0.5125 0
0.130469 0.452539 0
0.0652344 0.450488 0
0 0.448437 0
0.129688 0.387891 0
0.0648438 0.386133 0
0 0.384375 0
0.259375 0.391406 0
0.194531 0.389648 0
0.129688 0.387891 0
0.257812 0.326172 0
0.193359 0.324707 0
0.128906 0.323242 0
0.25625 0.260937 0
0.192187 0.259766 0
0.128125 0.258594 0
0.129688 0.387891 0
0.0648438 0.386133 0
0 0.384375 0
0.128906 0.323242 0
0.0644531 0.321777 0
0 0.320312 0
0.128125 0.258594 0
0.0640625 0.257422 0
0 0.25625 0
0.5125 0.265625 0
0.448437 0.264453 0
0.384375 0.263281 0
0.509375 0.199219 0
0.445703 0.19834 0
0.382031 0.197461 0
0.50625 0.132812 0
0.442969 0.132227 0
0.379688 0.131641 0
0.384375 0.263281 0
0.320312 0.262109 0
0.25625 0.260937 0
0.382031 0.197461 0
0.318359 0.196582 0
0.254687 0.195703 0
[...]
POINT_DATA 34560
VECTORS v double
1.24373 -0.262574 0
1.22987 -0.24046 0
1.21662 -0.220517 0
1.20918 -0.246313 0
1.19356 -0.227425 0
1.17928 -0.209412 0
1.17153 -0.230595 0
1.15492 -0.213701 0
1.13925 -0.197444 0
1.21662 -0.220517 0
1.20584 -0.201251 0
1.19572 -0.183654 0
1.17928 -0.209412 0
1.16675 -0.192148 0
1.15559 -0.175889 0
1.13925 -0.197444 0
1.12548 -0.181759 0
1.11281 -0.166746 0
1.17153 -0.230595 0
1.15492 -0.213701 0
1.13925 -0.197444 0
1.12824 -0.210948 0
1.11036 -0.196504 0
1.09353 -0.182449 0
1.07795 -0.192899 0
1.05961 -0.180491 0
1.0422 -0.168232 0
1.13925 -0.197444 0
1.12548 -0.181759 0
1.11281 -0.166746 0
1.09353 -0.182449 0
1.07856 -0.168714 0
1.06476 -0.15542 0
1.0422 -0.168232 0
1.02665 -0.156102 0
1.01219 -0.144221 0
1.19572 -0.183654 0
1.18709 -0.166674 0
1.17914 -0.150838 0
1.15559 -0.175889 0
1.14539 -0.160182 0
1.13656 -0.145316 0
1.11281 -0.166746 0
1.10142 -0.152225 0
1.09123 -0.138278 0
1.17914 -0.150838 0
1.17175 -0.135468 0
1.16497 -0.12081 0
1.13656 -0.145316 0
1.1278 -0.130748 0
1.12028 -0.116791 0
1.09123 -0.138278 0
1.08139 -0.124643 0
1.07275 -0.111404 0
1.11281 -0.166746 0
1.10142 -0.152225 0
1.09123 -0.138278 0
1.06476 -0.15542 0
1.05231 -0.142365 0
1.0411 -0.129762 0
1.01219 -0.144221 0
0.999096 -0.132467 0
0.987191 -0.121002 0
1.09123 -0.138278 0
1.08139 -0.124643 0
1.07275 -0.111404 0
1.0411 -0.129762 0
1.03044 -0.117283 0
1.02097 -0.105068 0
0.987191 -0.121002 0
0.975948 -0.109568 0
0.965887 -0.0983025 0
1.07795 -0.192899 0
1.05961 -0.180491 0
1.0422 -0.168232 0
1.02277 -0.17396 0
1.00417 -0.163438 0
0.986436 -0.152903 0
0.96326 -0.15599 0
0.944573 -0.147029 0
0.926626 -0.137968 0
1.0422 -0.168232 0
1.02665 -0.156102 0
1.01219 -0.144221 0
0.986436 -0.152903 0
0.970426 -0.14235 0
0.955442 -0.131927 0
0.926626 -0.137968 0
0.910312 -0.128818 0
0.894947 -0.119701 0
0.96326 -0.15599 0
0.944573 -0.147029 0
0.926626 -0.137968 0
0.899104 -0.136759 0
0.88039 -0.129344 0
0.862382 -0.121788 0
0.830275 -0.118775 0
0.811833 -0.112662 0
0.793999 -0.106387 0
0.926626 -0.137968 0
0.910312 -0.128818 0
0.894947 -0.119701 0
0.862382 -0.121788 0
0.845885 -0.114085 0
0.830305 -0.106352 0
0.793999 -0.106387 0
0.777547 -0.0999389 0
0.761936 -0.0934248 0
1.01219 -0.144221 0
0.999096 -0.132467 0
0.987191 -0.121002 0
0.955442 -0.131927 0
0.941824 -0.121514 0
0.929345 -0.111279 0
0.894947 -0.119701 0
0.880944 -0.110523 0
0.868035 -0.10144 0
0.987191 -0.121002 0
0.975948 -0.109568 0
0.965887 -0.0983025 0
0.929345 -0.111279 0
0.917638 -0.100996 0
0.907089 -0.0907984 0
0.868035 -0.10144 0
0.855981 -0.092254 0
0.84506 -0.0830873 0
0.894947 -0.119701 0
0.880944 -0.110523 0
0.868035 -0.10144 0
0.830305 -0.106352 0
0.816045 -0.0984892 0
0.802858 -0.090652 0
0.761936 -0.0934248 0
0.747581 -0.0867513 0
0.73425 -0.0800608 0
0.868035 -0.10144 0
0.855981 -0.092254 0
0.84506 -0.0830873 0
0.802858 -0.090652 0
0.790566 -0.0826538 0
0.779402 -0.0746185 0
0.73425 -0.0800608 0
0.72184 -0.0731833 0
0.710537 -0.0662287 0
1.16497 -0.12081 0
1.15864 -0.106319 0
1.15291 -0.0920787 0
1.12028 -0.116791 0
1.11285 -0.102883 0
1.10662 -0.0892192 0
1.07275 -0.111404 0
1.06449 -0.0982283 0
1.05743 -0.085203 0
1.15291 -0.0920787 0
1.14719 -0.0776783 0
1.14205 -0.0631558 0
1.10662 -0.0892192 0
1.10004 -0.0752864 0
1.09455 -0.0612865 0
1.05743 -0.085203 0
1.05021 -0.0719548 0
1.04417 -0.0585599 0
1.07275 -0.111404 0
1.06449 -0.0982283 0
1.05743 -0.085203 0
1.02097 -0.105068 0
1.01208 -0.0928023 0
1.00439 -0.0806558 0
0.965887 -0.0983025 0
0.956503 -0.0869512 0
0.948327 -0.0756501 0
1.05743 -0.085203 0
1.05021 -0.0719548 0
1.04417 -0.0585599 0
1.00439 -0.0806558 0
0.996776 -0.0682406 0
0.990321 -0.0556101 0
0.948327 -0.0756501 0
0.940373 -0.0640595 0
0.933603 -0.0522453 0
1.14205 -0.0631558 0
1.13718 -0.0481416 0
1.13294 -0.0326731 0
1.09455 -0.0612865 0
1.08915 -0.0467486 0
1.08483 -0.0317895 0
1.04417 -0.0585599 0
1.03839 -0.044648 0
1.0338 -0.0303348 0
1.13294 -0.0326731 0
1.12865 -0.0165801 0
1.125 0 0
1.08483 -0.0317895 0
1.08024 -0.0161363 0
1.07666 0 0
1.0338 -0.0303348 0
1.02902 -0.0153944 0
1.02539 0 0
1.04417 -0.0585599 0
1.03839 -0.044648 0
1.0338 -0.0303348 0
0.990321 -0.0556101 0
0.984338 -0.0424437 0
0.979558 -0.0288984 0
0.933603 -0.0522453 0
0.927411 -0.039917 0
0.922454 -0.0271922 0
1.0338 -0.0303348 0
1.02902 -0.0153944 0
1.02539 0 0
0.979558 -0.0288984 0
0.9748 -0.0147176 0
0.971191 0 0
0.922454 -0.0271922 0
0.917656 -0.0138411 0
0.914062 0 0
0.965887 -0.0983025 0
0.956503 -0.0869512 0
0.948327 -0.0756501 0
0.907089 -0.0907984 0
0.897322 -0.0804572 0
0.888752 -0.0701096 0
0.84506 -0.0830873 0
0.835003 -0.0737446 0
0.826138 -0.0643562 0
0.948327 -0.0756501 0
0.940373 -0.0640595 0
0.933603 -0.0522453 0
0.888752 -0.0701096 0
0.880556 -0.0594626 0
0.873556 -0.0485749 0
0.826138 -0.0643562 0
0.817766 -0.0546683 0
0.810595 -0.0447281 0
0.84506 -0.0830873 0
0.835003 -0.0737446 0
0.826138 -0.0643562 0
0.779402 -0.0746185 0
0.769154 -0.0663657 0
0.760102 -0.0580274 0
0.710537 -0.0662287 0
0.700183 -0.0590374 0
0.691021 -0.051733 0
0.826138 -0.0643562 0
0.817766 -0.0546683 0
0.810595 -0.0447281 0
0.760102 -0.0580274 0
0.751629 -0.0493783 0
0.744371 -0.0404708 0
0.691021 -0.051733 0
0.682511 -0.0441243 0
0.67522 -0.0362555 0
0.933603 -0.0522453 0
0.927411 -0.039917 0
0.922454 -0.0271922 0
0.873556 -0.0485749 0
0.86725 -0.0371706 0
0.86221 -0.0253561 0
0.810595 -0.0447281 0
0.804205 -0.0342886 0
0.799104 -0.0234368 0
0.922454 -0.0271922 0
0.917656 -0.0138411 0
0.914062 0 0
0.86221 -0.0253561 0
0.857484 -0.012922 0
0.854004 0 0
0.799104 -0.0234368 0
0.79442 -0.011972 0
0.791016 0 0
0.810595 -0.0447281 0
0.804205 -0.0342886 0
0.799104 -0.0234368 0
0.744371 -0.0404708 0
0.737966 -0.031078 0
0.732882 -0.0212743 0
0.67522 -0.0362555 0
0.668834 -0.027929 0
0.663786 -0.0191976 0
0.799104 -0.0234368 0
0.79442 -0.011972 0
0.791016 0 0
0.732882 -0.0212743 0
0.728328 -0.0108715 0
0.725098 0 0
0.663786 -0.0191976 0
0.659343 -0.00986748 0
0.65625 0 0
0.830275 -0.118775 0
0.811833 -0.112662 0
0.793999 -0.106387 0
0.75746 -0.100274 0
0.739335 -0.0953087 0
0.721755 -0.0902019 0
0.680129 -0.0828043 0
0.662526 -0.0788449 0
0.645396 -0.0747729 0
0.793999 -0.106387 0
0.777547 -0.0999389 0
0.761936 -0.0934248 0
0.721755 -0.0902019 0
0.705408 -0.0849409 0
0.689849 -0.0796157 0
0.645396 -0.0747729 0
0.629364 -0.0705756 0
0.614048 -0.06633 0
0.680129 -0.0828043 0
0.662526 -0.0788449 0
0.645396 -0.0747729 0
0.598416 -0.0651802 0
0.581431 -0.0621079 0
0.564897 -0.058959 0
0.511359 -0.0486372 0
0.495207 -0.0463878 0
0.479492 -0.0440863 0
0.645396 -0.0747729 0
0.629364 -0.0705756 0
0.614048 -0.06633 0
0.564897 -0.058959 0
0.549329 -0.0557219 0
0.534431 -0.0524636 0
0.479492 -0.0440863 0
0.464648 -0.0417262 0
0.450436 -0.0393679 0
0.761936 -0.0934248 0
0.747581 -0.0867513 0
0.73425 -0.0800608 0
0.689849 -0.0796157 0
0.675465 -0.0741333 0
0.662072 -0.068618 0
0.614048 -0.06633 0
0.599807 -0.0619448 0
0.586497 -0.0575297 0
0.73425 -0.0800608 0
0.72184 -0.0731833 0
0.710537 -0.0662287 0
0.662072 -0.068618 0
0.649606 -0.062904 0
0.638235 -0.0570883 0
0.586497 -0.0575297 0
0.574092 -0.0529228 0
0.562752 -0.0482059 0
0.614048 -0.06633 0
0.599807 -0.0619448 0
0.586497 -0.0575297 0
0.534431 -0.0524636 0
0.520481 -0.0491007 0
0.507405 -0.0457322 0
0.450436 -0.0393679 0
0.437052 -0.0369414 0
0.424472 -0.0345323 0
0.586497 -0.0575297 0
0.574092 -0.0529228 0
0.562752 -0.0482059 0
0.507405 -0.0457322 0
0.495169 -0.0422053 0
0.483957 -0.0385835 0
0.424472 -0.0345323 0
0.412646 -0.0320069 0
0.40177 -0.0294158 0
0.511359 -0.0486372 0
0.495207 -0.0463878 0
0.479492 -0.0440863 0
0.418286 -0.0323733 0
0.403181 -0.0308868 0
0.388542 -0.0293736 0
0.313779 -0.0175582 0
0.300638 -0.0168071 0
0.287907 -0.0160416 0
0.479492 -0.0440863 0
0.464648 -0.0417262 0
0.450436 -0.0393679 0
0.388542 -0.0293736 0
0.374686 -0.0278198 0
0.361455 -0.0262796 0
0.287907 -0.0160416 0
0.275832 -0.0152435 0
0.264313 -0.0144562 0
0.313779 -0.0175582 0
0.300638 -0.0168071 0
0.287907 -0.0160416 0
0.186954 -0.00541399 0
0.177608 -0.00516387 0
0.168571 -0.00492531 0
0 0 0
0 0 0
0 0 0
0.287907 -0.0160416 0
0.275832 -0.0152435 0
0.264313 -0.0144562 0
0.168571 -0.00492531 0
0.159929 -0.00467465 0
0.151718 -0.00444621 0
0 0 0
0 0 0
0 0 0
0.450436 -0.0393679 0
0.437052 -0.0369414 0
0.424472 -0.0345323 0
0.361455 -0.0262796 0
0.34894 -0.0246894 0
0.337178 -0.0231271 0
0.264313 -0.0144562 0
0.253371 -0.0136245 0
0.243079 -0.0128172 0
0.424472 -0.0345323 0
0.412646 -0.0320069 0
0.40177 -0.0294158 0
0.337178 -0.0231271 0
0.326055 -0.0214814 0
0.315799 -0.0198017 0
0.243079 -0.0128172 0
0.233306 -0.0119575 0
0.224266 -0.01109 0
0.264313 -0.0144562 0
0.253371 -0.0136245 0
0.243079 -0.0128172 0
0.151718 -0.00444621 0
0.143847 -0.00418297 0
0.136481 -0.00394514 0
0 0 0
0 0 0
0 0 0
0.243079 -0.0128172 0
0.233306 -0.0119575 0
0.224266 -0.01109 0
0.136481 -0.00394514 0
0.129424 -0.00366855 0
0.122949 -0.00340651 0
0 0 0
0 0 0
0 0 0
0.710537 -0.0662287 0
0.700183 -0.0590374 0
0.691021 -0.051733 0
0.638235 -0.0570883 0
0.627835 -0.051019 0
0.618632 -0.0448133 0
0.562752 -0.0482059 0
0.552381 -0.0432329 0
0.543202 -0.0381135 0
0.691021 -0.051733 0
0.682511 -0.0441243 0
0.67522 -0.0362555 0
0.618632 -0.0448133 0
0.610138 -0.0383009 0
0.602872 -0.0315291 0
0.543202 -0.0381135 0
0.534777 -0.032696 0
0.527585 -0.0270222 0
0.562752 -0.0482059 0
0.552381 -0.0432329 0
0.543202 -0.0381135 0
0.483957 -0.0385835 0
0.473676 -0.034723 0
0.464573 -0.0307214 0
0.40177 -0.0294158 0
0.391738 -0.026624 0
0.382828 -0.0237108 0
0.543202 -0.0381135 0
0.534777 -0.032696 0
0.527585 -0.0270222 0
0.464573 -0.0307214 0
0.456257 -0.0264353 0
0.44918 -0.0218981 0
0.382828 -0.0237108 0
0.374703 -0.0205388 0
0.367803 -0.0171352 0
0.67522 -0.0362555 0
0.668834 -0.027929 0
0.663786 -0.0191976 0
0.602872 -0.0315291 0
0.596552 -0.0243297 0
0.591596 -0.0167457 0
0.527585 -0.0270222 0
0.521365 -0.0209578 0
0.516524 -0.0145334 0
0.663786 -0.0191976 0
0.659343 -0.00986748 0
0.65625 0 0
0.591596 -0.0167457 0
0.587335 -0.00859723 0
0.584473 0 0
0.516524 -0.0145334 0
0.512435 -0.00755555 0
0.509766 0 0
0.527585 -0.0270222 0
0.521365 -0.0209578 0
0.516524 -0.0145334 0
0.44918 -0.0218981 0
0.443086 -0.0170059 0
0.438387 -0.0118014 0
0.367803 -0.0171352 0
0.361881 -0.0134217 0
0.357356 -0.00943674 0
0.516524 -0.0145334 0
0.512435 -0.00755555 0
0.509766 0 0
0.438387 -0.0118014 0
0.434519 -0.00611055 0
0.432129 0 0
0.357356 -0.00943674 0
0.353712 -0.00501854 0
0.351562 0 0
0.40177 -0.0294158 0
0.391738 -0.026624 0
0.382828 -0.0237108 0
0.315799 -0.0198017 0
0.306247 -0.0179735 0
0.297725 -0.016068 0
0.224266 -0.01109 0
0.215783 -0.010136 0
0.208166 -0.00915121 0
0.382828 -0.0237108 0
0.374703 -0.0205388 0
0.367803 -0.0171352 0
0.297725 -0.016068 0
0.289923 -0.0139666 0
0.283294 -0.0116821 0
0.208166 -0.00915121 0
0.201158 -0.00805477 0
0.195183 -0.00685657 0
0.224266 -0.01109 0
0.215783 -0.010136 0
0.208166 -0.00915121 0
0.122949 -0.00340651 0
0.116795 -0.00309776 0
0.111334 -0.00279369 0
0 0 0
0 0 0
0 0 0
0.208166 -0.00915121 0
0.201158 -0.00805477 0
0.195183 -0.00685657 0
0.111334 -0.00279369 0
0.106225 -0.00243475 0
0.101922 -0.00205614 0
0 0 0
0 0 0
0 0 0
0.367803 -0.0171352 0
0.361881 -0.0134217 0
0.357356 -0.00943674 0
0.283294 -0.0116821 0
0.277596 -0.00914367 0
0.273289 -0.00640483 0
0.195183 -0.00685657 0
0.190034 -0.00549758 0
0.186156 -0.00399529 0
0.357356 -0.00943674 0
0.353712 -0.00501854 0
0.351562 0 0
0.273289 -0.00640483 0
0.269909 -0.00333922 0
0.268066 0 0
0.186156 -0.00399529 0
0.183179 -0.00226676 0
0.181641 0 0
0.195183 -0.00685657 0
0.190034 -0.00549758 0
0.186156 -0.00399529 0
0.101922 -0.00205614 0
0.0981257 -0.00162173 0
0.0953887 -0.0011395 0
0 0 0
0 0 0
0 0 0
0.186156 -0.00399529 0
0.183179 -0.00226676 0
0.181641 0 0
0.0953887 -0.0011395 0
0.0932183 -0.000546521 0
0.0922852 0 0
0 0 0
0 0 0
0 0 0
1.69457 -0.274181 0
1.66453 -0.30632 0
1.62837 -0.334632 0
1.61474 -0.230068 0
1.58662 -0.260557 0
1.55515 -0.286494 0
1.53273 -0.196963 0
1.51125 -0.225036 0
1.48577 -0.249293 0
1.62837 -0.334632 0
1.59188 -0.354598 0
1.55075 -0.370017 0
1.55515 -0.286494 0
1.52194 -0.306899 0
1.48627 -0.322241 0
1.48577 -0.249293 0
1.4592 -0.269112 0
1.42956 -0.284482 0
1.53273 -0.196963 0
1.51125 -0.225036 0
1.48577 -0.249293 0
1.46669 -0.171366 0
1.44815 -0.194684 0
1.4264 -0.215147 0
1.38596 -0.144338 0
1.36939 -0.165045 0
1.34994 -0.183347 0
1.48577 -0.249293 0
1.4592 -0.269112 0
1.42956 -0.284482 0
1.4264 -0.215147 0
1.40285 -0.232049 0
1.37667 -0.245579 0
1.34994 -0.183347 0
1.3291 -0.1989 0
1.30593 -0.211618 0
1.55075 -0.370017 0
1.51361 -0.377854 0
1.4735 -0.38084 0
1.48627 -0.322241 0
1.45291 -0.331969 0
1.41822 -0.337522 0
1.42956 -0.284482 0
1.40186 -0.295353 0
1.37214 -0.302045 0
1.4735 -0.38084 0
1.43911 -0.378586 0
1.40303 -0.372781 0
1.41822 -0.337522 0
1.38726 -0.338507 0
1.3558 -0.336059 0
1.37214 -0.302045 0
1.34532 -0.304805 0
1.31735 -0.304083 0
1.42956 -0.284482 0
1.40186 -0.295353 0
1.37214 -0.302045 0
1.37667 -0.245579 0
1.35126 -0.255428 0
1.32401 -0.262054 0
1.30593 -0.211618 0
1.28342 -0.221401 0
1.25933 -0.228466 0
1.37214 -0.302045 0
1.34532 -0.304805 0
1.31735 -0.304083 0
1.32401 -0.262054 0
1.29867 -0.265505 0
1.27226 -0.266191 0
1.25933 -0.228466 0
1.23673 -0.232842 0
1.21319 -0.234784 0
1.38596 -0.144338 0
1.36939 -0.165045 0
1.34994 -0.183347 0
1.30496 -0.125654 0
1.29099 -0.14362 0
1.27442 -0.159639 0
1.22855 -0.106592 0
1.21596 -0.122463 0
1.20102 -0.136711 0
1.34994 -0.183347 0
1.3291 -0.1989 0
1.30593 -0.211618 0
1.27442 -0.159639 0
1.2566 -0.173329 0
1.23655 -0.184667 0
1.20102 -0.136711 0
1.18487 -0.148992 0
1.1667 -0.159294 0
1.22855 -0.106592 0
1.21596 -0.122463 0
1.20102 -0.136711 0
1.14928 -0.0900398 0
1.13795 -0.103643 0
1.12443 -0.115891 0
1.06712 -0.0739923 0
1.05669 -0.0857876 0
1.04422 -0.0964999 0
1.20102 -0.136711 0
1.18487 -0.148992 0
1.1667 -0.159294 0
1.12443 -0.115891 0
1.1098 -0.126532 0
1.09326 -0.135546 0
1.04422 -0.0964999 0
1.03079 -0.105893 0
1.01558 -0.113934 0
1.30593 -0.211618 0
1.28342 -0.221401 0
1.25933 -0.228466 0
1.23655 -0.184667 0
1.21688 -0.193512 0
1.19556 -0.200063 0
1.1667 -0.159294 0
1.14864 -0.167481 0
1.12905 -0.173724 0
1.25933 -0.228466 0
1.23673 -0.232842 0
1.21319 -0.234784 0
1.19556 -0.200063 0
1.17527 -0.204331 0
1.15388 -0.206495 0
1.12905 -0.173724 0
1.11019 -0.178008 0
1.09028 -0.180489 0
1.1667 -0.159294 0
1.14864 -0.167481 0
1.12905 -0.173724 0
1.09326 -0.135546 0
1.07675 -0.142841 0
1.05876 -0.148507 0
1.01558 -0.113934 0
1.00034 -0.120527 0
0.983699 -0.12575 0
1.12905 -0.173724 0
1.11019 -0.178008 0
1.09028 -0.180489 0
1.05876 -0.148507 0
1.0413 -0.152558 0
1.0228 -0.15507 0
0.983699 -0.12575 0
0.96745 -0.129589 0
0.950177 -0.132109 0
1.40303 -0.372781 0
1.3743 -0.363816 0
1.34513 -0.351819 0
1.3558 -0.336059 0
1.32988 -0.330125 0
1.30424 -0.322158 0
1.31735 -0.304083 0
1.29363 -0.300492 0
1.2696 -0.294443 0
1.34513 -0.351819 0
1.32212 -0.338608 0
1.29937 -0.323949 0
1.30424 -0.322158 0
1.28307 -0.312151 0
1.26258 -0.300665 0
1.2696 -0.294443 0
1.24906 -0.286422 0
1.22874 -0.276777 0
1.31735 -0.304083 0
1.29363 -0.300492 0
1.2696 -0.294443 0
1.27226 -0.266191 0
1.24926 -0.264385 0
1.22594 -0.260479 0
1.21319 -0.234784 0
1.19239 -0.234493 0
1.17132 -0.232328 0
1.2696 -0.294443 0
1.24906 -0.286422 0
1.22874 -0.276777 0
1.22594 -0.260479 0
1.20573 -0.254879 0
1.18577 -0.247816 0
1.17132 -0.232328 0
1.15267 -0.228504 0
1.13416 -0.223251 0
1.29937 -0.323949 0
1.28252 -0.309088 0
1.2667 -0.293094 0
1.26258 -0.300665 0
1.24676 -0.2879 0
1.23195 -0.274499 0
1.22874 -0.276777 0
1.21226 -0.266083 0
1.19663 -0.254552 0
1.2667 -0.293094 0
1.25483 -0.277729 0
1.24373 -0.262574 0
1.23195 -0.274499 0
1.21999 -0.260597 0
1.20918 -0.246313 0
1.19663 -0.254552 0
1.18352 -0.242628 0
1.17153 -0.230595 0
1.22874 -0.276777 0
1.21226 -0.266083 0
1.19663 -0.254552 0
1.18577 -0.247816 0
1.16942 -0.239693 0
1.15381 -0.230682 0
1.13416 -0.223251 0
1.11855 -0.21685 0
1.10351 -0.209533 0
1.19663 -0.254552 0
1.18352 -0.242628 0
1.17153 -0.230595 0
1.15381 -0.230682 0
1.14057 -0.221086 0
1.12824 -0.210948 0
1.10351 -0.209533 0
1.09034 -0.201496 0
1.07795 -0.192899 0
1.21319 -0.234784 0
1.19239 -0.234493 0
1.17132 -0.232328 0
1.15388 -0.206495 0
1.1346 -0.206757 0
1.11482 -0.205383 0
1.09028 -0.180489 0
1.07205 -0.181316 0
1.05332 -0.180721 0
1.17132 -0.232328 0
1.15267 -0.228504 0
1.13416 -0.223251 0
1.11482 -0.205383 0
1.09697 -0.202596 0
1.07907 -0.198511 0
1.05332 -0.180721 0
1.03621 -0.178858 0
1.01902 -0.175849 0
1.09028 -0.180489 0
1.07205 -0.181316 0
1.05332 -0.180721 0
1.0228 -0.15507 0
1.00565 -0.156192 0
0.987921 -0.156066 0
0.950177 -0.132109 0
0.933958 -0.13342 0
0.917141 -0.133655 0
1.05332 -0.180721 0
1.03621 -0.178858 0
1.01902 -0.175849 0
0.987921 -0.156066 0
0.971498 -0.154851 0
0.954888 -0.152619 0
0.917141 -0.133655 0
0.901385 -0.132937 0
0.885383 -0.131329 0
1.13416 -0.223251 0
1.11855 -0.21685 0
1.10351 -0.209533 0
1.07907 -0.198511 0
1.06366 -0.193441 0
1.04866 -0.187567 0
1.01902 -0.175849 0
1.00394 -0.171928 0
0.989194 -0.167247 0
1.10351 -0.209533 0
1.09034 -0.201496 0
1.07795 -0.192899 0
1.04866 -0.187567 0
1.03538 -0.181073 0
1.02277 -0.17396 0
0.989194 -0.167247 0
0.975949 -0.161917 0
0.96326 -0.15599 0
1.01902 -0.175849 0
1.00394 -0.171928 0
0.989194 -0.167247 0
0.954888 -0.152619 0
0.940024 -0.149586 0
0.92537 -0.145862 0
0.885383 -0.131329 0
0.870846 -0.129016 0
0.856442 -0.126101 0
0.989194 -0.167247 0
0.975949 -0.161917 0
0.96326 -0.15599 0
0.92537 -0.145862 0
0.912006 -0.141574 0
0.899104 -0.136759 0
0.856442 -0.126101 0
0.843166 -0.122682 0
0.830275 -0.118775 0
1.06712 -0.0739923 0
1.05669 -0.0857876 0
1.04422 -0.0964999 0
0.984866 -0.0610075 0
0.97505 -0.0709008 0
0.963355 -0.0799154 0
0.901754 -0.0474614 0
0.892094 -0.055825 0
0.880658 -0.0634838 0
1.04422 -0.0964999 0
1.03079 -0.105893 0
1.01558 -0.113934 0
0.963355 -0.0799154 0
0.950774 -0.0878467 0
0.936523 -0.094662 0
0.880658 -0.0634838 0
0.868472 -0.0702566 0
0.854717 -0.0761167 0
0.901754 -0.0474614 0
0.892094 -0.055825 0
0.880658 -0.0634838 0
0.816455 -0.0354921 0
0.806957 -0.0423038 0
0.79576 -0.048553 0
0.726271 -0.0234654 0
0.716999 -0.0288743 0
0.705995 -0.0338665 0
0.880658 -0.0634838 0
0.868472 -0.0702566 0
0.854717 -0.0761167 0
0.79576 -0.048553 0
0.783874 -0.0540887 0
0.770474 -0.0588942 0
0.705995 -0.0338665 0
0.694364 -0.0383104 0
0.68122 -0.0421939 0
1.01558 -0.113934 0
1.00034 -0.120527 0
0.983699 -0.12575 0
0.936523 -0.094662 0
0.922171 -0.100284 0
0.90648 -0.104771 0
0.854717 -0.0761167 0
0.840861 -0.0809943 0
0.825745 -0.0849336 0
0.983699 -0.12575 0
0.96745 -0.129589 0
0.950177 -0.132109 0
0.90648 -0.104771 0
0.89108 -0.108117 0
0.874687 -0.110359 0
0.825745 -0.0849336 0
0.810888 -0.087924 0
0.795098 -0.089989 0
0.854717 -0.0761167 0
0.840861 -0.0809943 0
0.825745 -0.0849336 0
0.770474 -0.0588942 0
0.756955 -0.0629107 0
0.74221 -0.0661703 0
0.68122 -0.0421939 0
0.667945 -0.0454656 0
0.653456 -0.0481494 0
0.825745 -0.0849336 0
0.810888 -0.087924 0
0.795098 -0.089989 0
0.74221 -0.0661703 0
0.727687 -0.0686675 0
0.712252 -0.0704106 0
0.653456 -0.0481494 0
0.639173 -0.0502411 0
0.624001 -0.0517395 0
0.726271 -0.0234654 0
0.716999 -0.0288743 0
0.705995 -0.0338665 0
0.62284 -0.0130586 0
0.614832 -0.016982 0
0.604956 -0.0206244 0
0.486908 -0.00402367 0
0.481808 -0.0063861 0
0.47467 -0.00861683 0
0.705995 -0.0338665 0
0.694364 -0.0383104 0
0.68122 -0.0421939 0
0.604956 -0.0206244 0
0.59437 -0.0238756 0
0.582152 -0.0267336 0
0.47467 -0.00861683 0
0.466697 -0.0106373 0
0.456977 -0.0124445 0
0.486908 -0.00402367 0
0.481808 -0.0063861 0
0.47467 -0.00861683 0
0.29158 -0.000778251 0
0.290905 -0.00156454 0
0.288307 -0.00231928 0
0 0 0
0 0 0
0 0 0
0.47467 -0.00861683 0
0.466697 -0.0106373 0
0.456977 -0.0124445 0
0.288307 -0.00231928 0
0.285095 -0.00299683 0
0.280145 -0.00360228 0
0 0 0
0 0 0
0 0 0
0.68122 -0.0421939 0
0.667945 -0.0454656 0
0.653456 -0.0481494 0
0.582152 -0.0267336 0
0.569711 -0.0291547 0
0.555964 -0.0311555 0
0.456977 -0.0124445 0
0.446858 -0.0140095 0
0.435352 -0.0153333 0