# vtk DataFile Version 3.0
#This file was generated by the deal.II library on 2025/1/7 at 22:07:31
ASCII
DATASET UNSTRUCTURED_GRID

POINTS 34560 double
1.1 1.1 0
1.03125 1.09531 0
0.9625 1.09063 0
1.09375 1.03125 0
1.02539 1.02686 0
0.957031 1.02246 0
1.0875 0.9625 0
1.01953 0.958398 0
0.951563 0.954297 0
0.9625 1.09063 0
0.89375 1.08594 0
0.825 1.08125 0
0.957031 1.02246 0
0.888672 1.01807 0
0.820312 1.01367 0
0.951563 0.954297 0
0.883594 0.950195 0
0.815625 0.946094 0
1.0875 0.9625 0
1.01953 0.958398 0
0.951563 0.954297 0
1.08125 0.89375 0
1.01367 0.889941 0
0.946094 0.886133 0
1.075 0.825 0
1.00781 0.821484 0
0.940625 0.817969 0
0.951563 0.954297 0
0.883594 0.950195 0
0.815625 0.946094 0
0.946094 0.886133 0
0.878516 0.882324 0
0.810938 0.878516 0
0.940625 0.817969 0
0.873438 0.814453 0
0.80625 0.810937 0
0.825 1.08125 0
0.75625 1.07656 0
0.6875 1.07187 0
0.820312 1.01367 0
0.751953 1.00928 0
0.683594 1.00488 0
0.815625 0.946094 0
0.747656 0.941992 0
0.679688 0.937891 0
0.6875 1.07187 0
0.61875 1.06719 0
0.55 1.0625 0
0.683594 1.00488 0
0.615234 1.00049 0
0.546875 0.996094 0
0.679688 0.937891 0
0.611719 0.933789 0
0.54375 0.929688 0
0.815625 0.946094 0
0.747656 0.941992 0
0.679688 0.937891 0
0.810938 0.878516 0
0.743359 0.874707 0
0.675781 0.870898 0
0.80625 0.810937 0
0.739063 0.807422 0
0.671875 0.803906 0
0.679688 0.937891 0
0.611719 0.933789 0
0.54375 0.929688 0
0.675781 0.870898 0
0.608203 0.86709 0
0.540625 0.863281 0
0.671875 0.803906 0
0.604688 0.800391 0
0.5375 0.796875 0
1.075 0.825 0
1.00781 0.821484 0
0.940625 0.817969 0
1.06875 0.75625 0
1.00195 0.753027 0
0.935156 0.749805 0
1.0625 0.6875 0
0.996094 0.68457 0
0.929688 0.681641 0
0.940625 0.817969 0
0.873438 0.814453 0
0.80625 0.810937 0
0.935156 0.749805 0
0.868359 0.746582 0
0.801563 0.743359 0
0.929688 0.681641 0
0.863281 0.678711 0
0.796875 0.675781 0
1.0625 0.6875 0
0.996094 0.68457 0
0.929688 0.681641 0
1.05625 0.61875 0
0.990234 0.616113 0
0.924219 0.613477 0
1.05 0.55 0
0.984375 0.547656 0
0.91875 0.545313 0
0.929688 0.681641 0
0.863281 0.678711 0
0.796875 0.675781 0
0.924219 0.613477 0
0.858203 0.61084 0
0.792188 0.608203 0
0.91875 0.545313 0
0.853125 0.542969 0
0.7875 0.540625 0
0.80625 0.810937 0
0.739063 0.807422 0
0.671875 0.803906 0
0.801563 0.743359 0
0.734766 0.740137 0
0.667969 0.736914 0
0.796875 0.675781 0
0.730469 0.672852 0
0.664062 0.669922 0
0.671875 0.803906 0
0.604688 0.800391 0
0.5375 0.796875 0
0.667969 0.736914 0
0.601172 0.733691 0
0.534375 0.730469 0
0.664062 0.669922 0
0.597656 0.666992 0
0.53125 0.664062 0
0.796875 0.675781 0
0.730469 0.672852 0
0.664062 0.669922 0
0.792188 0.608203 0
0.726172 0.605566 0
0.660156 0.60293 0
0.7875 0.540625 0
0.721875 0.538281 0
0.65625 0.535937 0
0.664062 0.669922 0
0.597656 0.666992 0
0.53125 0.664062 0
0.660156 0.60293 0
0.594141 0.600293 0
0.528125 0.597656 0
0.65625 0.535937 0
0.590625 0.533594 0
0.525 0.53125 0
0.55 1.0625 0
0.48125 1.05781 0
0.4125 1.05313 0
0.546875 0.996094 0
0.478516 0.991699 0
0.410156 0.987305 0
0.54375 0.929688 0
0.475781 0.925586 0
0.407813 0.921484 0
0.4125 1.05313 0
0.34375 1.04844 0
0.275 1.04375 0
0.410156 0.987305 0
0.341797 0.98291 0
0.273438 0.978516 0
0.407813 0.921484 0
0.339844 0.917383 0
0.271875 0.913281 0
0.54375 0.929688 0
0.475781 0.925586 0
0.407813 0.921484 0
0.540625 0.863281 0
0.473047 0.859473 0
0.405469 0.855664 0
0.5375 0.796875 0
0.470313 0.793359 0
0.403125 0.789844 0
0.407813 0.921484 0
0.339844 0.917383 0
0.271875 0.913281 0
0.405469 0.855664 0
0.337891 0.851855 0
0.270313 0.848047 0
0.403125 0.789844 0
0.335938 0.786328 0
0.26875 0.782813 0
0.275 1.04375 0
0.20625 1.03906 0
0.1375 1.03437 0
0.273438 0.978516 0
0.205078 0.974121 0
0.136719 0.969727 0
0.271875 0.913281 0
0.203906 0.90918 0
0.135938 0.905078 0
0.1375 1.03437 0
0.06875 1.02969 0
0 1.025 0
0.136719 0.969727 0
0.0683594 0.965332 0
0 0.960937 0
0.135938 0.905078 0
0.0679688 0.900977 0
0 0.896875 0
0.271875 0.913281 0
0.203906 0.90918 0
0.135938 0.905078 0
0.270313 0.848047 0
0.202734 0.844238 0
0.135156 0.84043 0
0.26875 0.782813 0
0.201563 0.779297 0
0.134375 0.775781 0
0.135938 0.905078 0
0.0679688 0.900977 0
0 0.896875 0
0.135156 0.84043 0
0.0675781 0.836621 0
0 0.832812 0
0.134375 0.775781 0
0.0671875 0.772266 0
0 0.76875 0
0.5375 0.796875 0
0.470313 0.793359 0
0.403125 0.789844 0
0.534375 0.730469 0
0.467578 0.727246 0
0.400781 0.724023 0
0.53125 0.664062 0
0.464844 0.661133 0
0.398438 0.658203 0
0.403125 0.789844 0
0.335938 0.786328 0
0.26875 0.782813 0
0.400781 0.724023 0
0.333984 0.720801 0
0.267188 0.717578 0
0.398438 0.658203 0
0.332031 0.655273 0
0.265625 0.652344 0
0.53125 0.664062 0
0.464844 0.661133 0
0.398438 0.658203 0
0.528125 0.597656 0
0.462109 0.59502 0
0.396094 0.592383 0
0.525 0.53125 0
0.459375 0.528906 0
0.39375 0.526563 0
0.398438 0.658203 0
0.332031 0.655273 0
0.265625 0.652344 0
0.396094 0.592383 0
0.330078 0.589746 0
0.264062 0.587109 0
0.39375 0.526563 0
0.328125 0.524219 0
0.2625 0.521875 0
0.26875 0.782813 0
0.201563 0.779297 0
0.134375 0.775781 0
0.267188 0.717578 0
0.200391 0.714355 0
0.133594 0.711133 0
0.265625 0.652344 0
0.199219 0.649414 0
0.132812 0.646484 0
0.134375 0.775781 0
0.0671875 0.772266 0
0 0.76875 0
0.133594 0.711133 0
0.0667969 0.70791 0
0 0.704687 0
0.132812 0.646484 0
0.0664062 0.643555 0
0 0.640625 0
0.265625 0.652344 0
0.199219 0.649414 0
0.132812 0.646484 0
0.264062 0.587109 0
0.198047 0.584473 0
0.132031 0.581836 0
0.2625 0.521875 0
0.196875 0.519531 0
0.13125 0.517187 0
0.132812 0.646484 0
0.0664062 0.643555 0
0 0.640625 0
0.132031 0.581836 0
0.0660156 0.579199 0
0 0.576562 0
0.13125 0.517187 0
0.065625 0.514844 0
0 0.5125 0
1.05 0.55 0
0.984375 0.547656 0
0.91875 0.545313 0
1.04375 0.48125 0
0.978516 0.479199 0
0.913281 0.477148 0
1.0375 0.4125 0
0.972656 0.410742 0
0.907813 0.408984 0
0.91875 0.545313 0
0.853125 0.542969 0
0.7875 0.540625 0
0.913281 0.477148 0
0.848047 0.475098 0
0.782813 0.473047 0
0.907813 0.408984 0
0.842969 0.407227 0
0.778125 0.405469 0
1.0375 0.4125 0
0.972656 0.410742 0
0.907813 0.408984 0
1.03125 0.34375 0
0.966797 0.342285 0
0.902344 0.34082 0
1.025 0.275 0
0.960937 0.273828 0
0.896875 0.272656 0
0.907813 0.408984 0
0.842969 0.407227 0
0.778125 0.405469 0
0.902344 0.34082 0
0.837891 0.339355 0
0.773438 0.337891 0
0.896875 0.272656 0
0.832812 0.271484 0
0.76875 0.270313 0
0.7875 0.540625 0
0.721875 0.538281 0
0.65625 0.535937 0
0.782813 0.473047 0
0.717578 0.470996 0
0.652344 0.468945 0
0.778125 0.405469 0
0.713281 0.403711 0
0.648438 0.401953 0
0.65625 0.535937 0
0.590625 0.533594 0
0.525 0.53125 0
0.652344 0.468945 0
0.587109 0.466895 0
0.521875 0.464844 0
0.648438 0.401953 0
0.583594 0.400195 0
0.51875 0.398438 0
0.778125 0.405469 0
0.713281 0.403711 0
0.648438 0.401953 0
0.773438 0.337891 0
0.708984 0.336426 0
0.644531 0.334961 0
0.76875 0.270313 0
0.704687 0.269141 0
0.640625 0.267969 0
0.648438 0.401953 0
0.583594 0.400195 0
0.51875 0.398438 0
0.644531 0.334961 0
0.580078 0.333496 0
0.515625 0.332031 0
0.640625 0.267969 0
0.576562 0.266797 0
0.5125 0.265625 0
1.025 0.275 0
0.960937 0.273828 0
0.896875 0.272656 0
1.01875 0.20625 0
0.955078 0.205371 0
0.891406 0.204492 0
1.0125 0.1375 0
0.949219 0.136914 0
0.885937 0.136328 0
0.896875 0.272656 0
0.832812 0.271484 0
0.76875 0.270313 0
0.891406 0.204492 0
0.827734 0.203613 0
0.764062 0.202734 0
0.885937 0.136328 0
0.822656 0.135742 0
0.759375 0.135156 0
1.0125 0.1375 0
0.949219 0.136914 0
0.885937 0.136328 0
1.00625 0.06875 0
0.943359 0.068457 0
0.880469 0.0681641 0
1 0 0
0.9375 0 0
0.875 0 0
0.885937 0.136328 0
0.822656 0.135742 0
0.759375 0.135156 0
0.880469 0.0681641 0
0.817578 0.0678711 0
0.754687 0.0675781 0
0.875 0 0
0.8125 0 0
0.75 0 0
0.76875 0.270313 0
0.704687 0.269141 0
0.640625 0.267969 0
0.764062 0.202734 0
0.700391 0.201855 0
0.636719 0.200977 0
0.759375 0.135156 0
0.696094 0.13457 0
0.632812 0.133984 0
0.640625 0.267969 0
0.576562 0.266797 0
0.5125 0.265625 0
0.636719 0.200977 0
0.573047 0.200098 0
0.509375 0.199219 0
0.632812 0.133984 0
0.569531 0.133398 0
0.50625 0.132812 0
0.759375 0.135156 0
0.696094 0.13457 0
0.632812 0.133984 0
0.754687 0.0675781 0
0.691797 0.0672852 0
0.628906 0.0669922 0
0.75 0 0
0.6875 0 0
0.625 0 0
0.632812 0.133984 0
0.569531 0.133398 0
0.50625 0.132812 0
0.628906 0.0669922 0
0.566016 0.0666992 0
0.503125 0.0664062 0
0.625 0 0
0.5625 0 0
0.5 0 0
0.525 0.53125 0
0.459375 0.528906 0
0.39375 0.526563 0
0.521875 0.464844 0
0.456641 0.462793 0
0.391406 0.460742 0
0.51875 0.398438 0
0.453906 0.39668 0
0.389063 0.394922 0
0.39375 0.526563 0
0.328125 0.524219 0
0.2625 0.521875 0
0.391406 0.460742 0
0.326172 0.458691 0
0.260938 0.456641 0
0.389063 0.394922 0
0.324219 0.393164 0
0.259375 0.391406 0
0.51875 0.398438 0
0.453906 0.39668 0
0.389063 0.394922 0
0.515625 0.332031 0
0.451172 0.330566 0
0.386719 0.329102 0
0.5125 0.265625 0
0.448437 0.264453 0
0.384375 0.263281 0
0.389063 0.394922 0
0.324219 0.393164 0
0.259375 0.391406 0
0.386719 0.329102 0
0.322266 0.327637 0
0.257812 0.326172 0
0.384375 0.263281 0
0.320312 0.262109 0
0.25625 0.260937 0
0.2625 0.521875 0
0.196875 0.519531 0
0.13125 0.517187 0
0.260938 0.456641 0
0.195703 0.45459 0
0.130469 0.452539 0
0.259375 0.391406 0
0.194531 0.389648 0
0.129688 0.387891 0
0.13125 0.517187 0
0.065625 0.514844 0
0 0.5125 0
0.130469 0.452539 0
0.0652344 0.450488 0
0 0.448437 0
0.129688 0.387891 0
0.0648438 0.386133 0
0 0.384375 0
0.259375 0.391406 0
0.194531 0.389648 0
0.129688 0.387891 0
0.257812 0.326172 0
0.193359 0.324707 0
0.128906 0.323242 0
0.25625 0.260937 0
0.192187 0.259766 0
0.128125 0.258594 0
0.129688 0.387891 0
0.0648438 0.386133 0
0 0.384375 0
0.128906 0.323242 0
0.0644531 0.321777 0
0 0.320312 0
0.128125 0.258594 0
0.0640625 0.257422 0
0 0.25625 0
0.5125 0.265625 0
0.448437 0.264453 0
0.384375 0.263281 0
0.509375 0.199219 0
0.445703 0.19834 0
0.382031 0.197461 0
0.50625 0.132812 0
0.442969 0.132227 0
0.379688 0.131641 0
0.384375 0.263281 0
0.320312 0.262109 0
0.25625 0.260937 0
0.382031 0.197461 0
0.318359 0.196582 0
0.254687 0.195703 0
[...]
POINT_DATA 34560
VECTORS v double
1.26944 -0.301119 0
1.25245 -0.278034 0
1.23604 -0.256649 0
1.23417 -0.281376 0
1.21546 -0.261628 0
1.19816 -0.242454 0
1.19513 -0.262593 0
1.17569 -0.24503 0
1.15725 -0.227769 0
1.23604 -0.256649 0
1.2225 -0.235821 0
1.20963 -0.216278 0
1.19816 -0.242454 0
1.1829 -0.223784 0
1.16911 -0.205859 0
1.15725 -0.227769 0
1.14095 -0.210855 0
1.12584 -0.194346 0
1.19513 -0.262593 0
1.17569 -0.24503 0
1.15725 -0.227769 0
1.15104 -0.240049 0
1.13051 -0.225002 0
1.11105 -0.210053 0
1.0998 -0.219204 0
1.07893 -0.206306 0
1.05904 -0.193283 0
1.15725 -0.227769 0
1.14095 -0.210855 0
1.12584 -0.194346 0
1.11105 -0.210053 0
1.09367 -0.195209 0
1.07751 -0.180564 0
1.05904 -0.193283 0
1.04118 -0.180178 0
1.02448 -0.167097 0
1.20963 -0.216278 0
1.19864 -0.197208 0
1.1884 -0.178943 0
1.16911 -0.205859 0
1.15658 -0.188262 0
1.14555 -0.171251 0
1.12584 -0.194346 0
1.11224 -0.17812 0
1.09998 -0.162228 0
1.1884 -0.178943 0
1.1791 -0.160954 0
1.17056 -0.143345 0
1.14555 -0.171251 0
1.1349 -0.154292 0
1.1257 -0.137687 0
1.09998 -0.162228 0
1.08832 -0.146422 0
1.07806 -0.130774 0
1.12584 -0.194346 0
1.11224 -0.17812 0
1.09998 -0.162228 0
1.07751 -0.180564 0
1.06293 -0.165973 0
1.04969 -0.151618 0
1.02448 -0.167097 0
1.00934 -0.153967 0
0.995508 -0.140932 0
1.09998 -0.162228 0
1.08832 -0.146422 0
1.07806 -0.130774 0
1.04969 -0.151618 0
1.03724 -0.13719 0
1.02616 -0.122804 0
0.995508 -0.140932 0
0.98253 -0.127751 0
0.970919 -0.11454 0
1.0998 -0.219204 0
1.07893 -0.206306 0
1.05904 -0.193283 0
1.04355 -0.197764 0
1.02261 -0.186829 0
1.00257 -0.175611 0
0.983206 -0.177417 0
0.96231 -0.168112 0
0.942198 -0.158451 0
1.05904 -0.193283 0
1.04118 -0.180178 0
1.02448 -0.167097 0
1.00257 -0.175611 0
0.984401 -0.164175 0
0.967323 -0.152653 0
0.942198 -0.158451 0
0.923831 -0.148507 0
0.906483 -0.138396 0
0.983206 -0.177417 0
0.96231 -0.168112 0
0.942198 -0.158451 0
0.918396 -0.155847 0
0.897552 -0.148153 0
0.877472 -0.140078 0
0.849016 -0.135605 0
0.828499 -0.129298 0
0.808663 -0.1226 0
0.942198 -0.158451 0
0.923831 -0.148507 0
0.906483 -0.138396 0
0.877472 -0.140078 0
0.859006 -0.131672 0
0.841537 -0.123042 0
0.808663 -0.1226 0
0.790308 -0.115543 0
0.772888 -0.108234 0
1.02448 -0.167097 0
1.00934 -0.153967 0
0.995508 -0.140932 0
0.967323 -0.152653 0
0.951766 -0.140984 0
0.937451 -0.129317 0
0.906483 -0.138396 0
0.890625 -0.128079 0
0.87596 -0.1177 0
0.995508 -0.140932 0
0.98253 -0.127751 0
0.970919 -0.11454 0
0.937451 -0.129317 0
0.92407 -0.117457 0
0.912017 -0.105512 0
0.87596 -0.1177 0
0.862285 -0.107096 0
0.849902 -0.0963672 0
0.906483 -0.138396 0
0.890625 -0.128079 0
0.87596 -0.1177 0
0.841537 -0.123042 0
0.825498 -0.114148 0
0.810634 -0.105135 0
0.772888 -0.108234 0
0.756822 -0.100634 0
0.741889 -0.0928831 0
0.87596 -0.1177 0
0.862285 -0.107096 0
0.849902 -0.0963672 0
0.810634 -0.105135 0
0.796773 -0.0958565 0
0.784191 -0.0864241 0
0.741889 -0.0928831 0
0.727964 -0.0848556 0
0.715289 -0.0766551 0
1.17056 -0.143345 0
1.16281 -0.125719 0
1.15587 -0.108121 0
1.1257 -0.137687 0
1.11688 -0.120892 0
1.10947 -0.104145 0
1.07806 -0.130774 0
1.06842 -0.114949 0
1.06023 -0.0990836 0
1.15587 -0.108121 0
1.14921 -0.0903636 0
1.14332 -0.0724939 0
1.10947 -0.104145 0
1.10198 -0.0870686 0
1.09578 -0.0699495 0
1.06023 -0.0990836 0
1.0521 -0.0829101 0
1.04538 -0.0666015 0
1.07806 -0.130774 0
1.06842 -0.114949 0
1.06023 -0.0990836 0
1.02616 -0.122804 0
1.01591 -0.108148 0
1.0071 -0.0934182 0
0.970919 -0.11454 0
0.960209 -0.101038 0
0.950941 -0.0873996 0
1.06023 -0.0990836 0
1.0521 -0.0829101 0
1.04538 -0.0666015 0
1.0071 -0.0934182 0
0.998592 -0.0783142 0
0.991477 -0.062981 0
0.950941 -0.0873996 0
0.942118 -0.0733463 0
0.934717 -0.0590342 0
1.14332 -0.0724939 0
1.13789 -0.0544665 0
1.13324 -0.0363049 0
1.09578 -0.0699495 0
1.08984 -0.052574 0
1.08511 -0.0350964 0
1.04538 -0.0666015 0
1.03905 -0.0500227 0
1.03408 -0.033356 0
1.13324 -0.0363049 0
1.12873 -0.0181467 0
1.125 0 0
1.08511 -0.0350964 0
1.08033 -0.0175299 0
1.07666 0 0
1.03408 -0.033356 0
1.0291 -0.0166483 0
1.02539 0 0
1.04538 -0.0666015 0
1.03905 -0.0500227 0
1.03408 -0.033356 0
0.991477 -0.062981 0
0.984968 -0.0473326 0
0.979822 -0.0315994 0
0.934717 -0.0590342 0
0.928021 -0.0443951 0
0.922713 -0.0296334 0
1.03408 -0.033356 0
1.0291 -0.0166483 0
1.02539 0 0
0.979822 -0.0315994 0
0.974873 -0.0158083 0
0.971191 0 0
0.922713 -0.0296334 0
0.917731 -0.0148075 0
0.914062 0 0
0.970919 -0.11454 0
0.960209 -0.101038 0
0.950941 -0.0873996 0
0.912017 -0.105512 0
0.900944 -0.0932445 0
0.891295 -0.0807971 0
0.849902 -0.0963672 0
0.838557 -0.0853144 0
0.828624 -0.0740599 0
0.950941 -0.0873996 0
0.942118 -0.0733463 0
0.934717 -0.0590342 0
0.891295 -0.0807971 0
0.88224 -0.0679173 0
0.874626 -0.0547398 0
0.828624 -0.0740599 0
0.8194 -0.0623673 0
0.811627 -0.0503477 0
0.849902 -0.0963672 0
0.838557 -0.0853144 0
0.828624 -0.0740599 0
0.784191 -0.0864241 0
0.772671 -0.0766598 0
0.762554 -0.0666795 0
0.715289 -0.0766551 0
0.703683 -0.0681358 0
0.693462 -0.059402 0
0.828624 -0.0740599 0
0.8194 -0.0623673 0
0.811627 -0.0503477 0
0.762554 -0.0666795 0
0.753224 -0.0562574 0
0.745365 -0.0454904 0
0.693462 -0.059402 0
0.684086 -0.0502494 0
0.676189 -0.0407465 0
0.934717 -0.0590342 0
0.928021 -0.0443951 0
0.922713 -0.0296334 0
0.874626 -0.0547398 0
0.867828 -0.041196 0
0.862451 -0.0274956 0
0.811627 -0.0503477 0
0.804759 -0.0379392 0
0.799336 -0.0253439 0
0.922713 -0.0296334 0
0.917731 -0.0148075 0
0.914062 0 0
0.862451 -0.0274956 0
0.857554 -0.0137309 0
0.854004 0 0
0.799336 -0.0253439 0
0.794491 -0.01267 0
0.791016 0 0
0.811627 -0.0503477 0
0.804759 -0.0379392 0
0.799336 -0.0253439 0
0.745365 -0.0454904 0
0.73849 -0.0343053 0
0.733097 -0.022903 0
0.676189 -0.0407465 0
0.669336 -0.0308103 0
0.663993 -0.0206232 0
0.799336 -0.0253439 0
0.794491 -0.01267 0
0.791016 0 0
0.733097 -0.022903 0
0.728392 -0.0114199 0
0.725098 0 0
0.663993 -0.0206232 0
0.659407 -0.0103213 0
0.65625 0 0
0.849016 -0.135605 0
0.828499 -0.129298 0
0.808663 -0.1226 0
0.776017 -0.114877 0
0.755806 -0.109794 0
0.736223 -0.104354 0
0.698846 -0.0951218 0
0.679111 -0.0911406 0
0.659931 -0.0868524 0
0.808663 -0.1226 0
0.790308 -0.115543 0
0.772888 -0.108234 0
0.736223 -0.104354 0
0.717982 -0.0985797 0
0.700639 -0.0925619 0
0.659931 -0.0868524 0
0.64196 -0.082262 0
0.624833 -0.077451 0
0.698846 -0.0951218 0
0.679111 -0.0911406 0
0.659931 -0.0868524 0
0.617697 -0.0751583 0
0.598542 -0.0721175 0
0.579893 -0.06884 0
0.531316 -0.056244 0
0.513006 -0.0540653 0
0.495153 -0.0517137 0
0.659931 -0.0868524 0
0.64196 -0.082262 0
0.624833 -0.077451 0
0.579893 -0.06884 0
0.562299 -0.0653224 0
0.545498 -0.0616314 0
0.495153 -0.0517137 0
0.47822 -0.0491823 0
0.462019 -0.0465319 0
0.772888 -0.108234 0
0.756822 -0.100634 0
0.741889 -0.0928831 0
0.700639 -0.0925619 0
0.684577 -0.0862561 0
0.669631 -0.0797882 0
0.624833 -0.077451 0
0.608897 -0.0723638 0
0.59404 -0.0671205 0
0.741889 -0.0928831 0
0.727964 -0.0848556 0
0.715289 -0.0766551 0
0.669631 -0.0797882 0
0.655687 -0.0730387 0
0.642985 -0.066106 0
0.59404 -0.0671205 0
0.580168 -0.0616019 0
0.567521 -0.055899 0
0.624833 -0.077451 0
0.608897 -0.0723638 0
0.59404 -0.0671205 0
0.545498 -0.0616314 0
0.529765 -0.0577059 0
0.515076 -0.0536563 0
0.462019 -0.0465319 0
0.446745 -0.0436978 0
0.432448 -0.0407777 0
0.59404 -0.0671205 0
0.580168 -0.0616019 0
0.567521 -0.055899 0
0.515076 -0.0536563 0
0.501329 -0.0493616 0
0.488791 -0.0448961 0
0.432448 -0.0407777 0
0.419017 -0.0376525 0
0.406743 -0.034387 0
0.531316 -0.056244 0
0.513006 -0.0540653 0
0.495153 -0.0517137 0
0.439016 -0.0377321 0
0.42178 -0.0362818 0
0.405002 -0.0347223 0
0.334171 -0.0205547 0
0.318955 -0.0198171 0
0.304139 -0.0190213 0
0.495153 -0.0517137 0
0.47822 -0.0491823 0
0.462019 -0.0465319 0
0.405002 -0.0347223 0
0.389008 -0.033038 0
0.373719 -0.0312879 0
0.304139 -0.0190213 0
0.289969 -0.0181464 0
0.276428 -0.0172428 0
0.334171 -0.0205547 0
0.318955 -0.0198171 0
0.304139 -0.0190213 0
0.201637 -0.0064271 0
0.190622 -0.0061654 0
0.179971 -0.00590677 0
0 0 0
0 0 0
0 0 0
0.304139 -0.0190213 0
0.289969 -0.0181464 0
0.276428 -0.0172428 0
0.179971 -0.00590677 0
0.169704 -0.00561526 0
0.159987 -0.00533916 0
0 0 0
0 0 0
0 0 0
0.462019 -0.0465319 0
0.446745 -0.0436978 0
0.432448 -0.0407777 0
0.373719 -0.0312879 0
0.359204 -0.0294058 0
0.345604 -0.0274812 0
0.276428 -0.0172428 0
0.263506 -0.0162497 0
0.251386 -0.0152463 0
0.432448 -0.0407777 0
0.419017 -0.0376525 0
0.406743 -0.034387 0
0.345604 -0.0274812 0
0.332748 -0.0254087 0
0.320977 -0.0232461 0
0.251386 -0.0152463 0
0.23988 -0.014154 0
0.229325 -0.0130239 0
0.276428 -0.0172428 0
0.263506 -0.0162497 0
0.251386 -0.0152463 0
0.159987 -0.00533916 0
0.150629 -0.00500975 0
0.141948 -0.00469971 0
0 0 0
0 0 0
0 0 0
0.251386 -0.0152463 0
0.23988 -0.014154 0
0.229325 -0.0130239 0
0.141948 -0.00469971 0
0.133632 -0.00433698 0
0.126101 -0.00398331 0
0 0 0
0 0 0
0 0 0
0.715289 -0.0766551 0
0.703683 -0.0681358 0
0.693462 -0.059402 0
0.642985 -0.066106 0
0.631351 -0.0588661 0
0.621094 -0.0514201 0
0.567521 -0.055899 0
0.555931 -0.0499058 0
0.545705 -0.0437236 0
0.693462 -0.059402 0
0.684086 -0.0502494 0
0.676189 -0.0407465 0
0.621094 -0.0514201 0
0.611715 -0.0435846 0
0.603822 -0.0354104 0
0.545705 -0.0437236 0
0.536378 -0.0371969 0
0.528535 -0.0303548 0
0.567521 -0.055899 0
0.555931 -0.0499058 0
0.545705 -0.0437236 0
0.488791 -0.0448961 0
0.477283 -0.0401607 0
0.467137 -0.0352566 0
0.406743 -0.034387 0
0.395438 -0.0308839 0
0.385463 -0.0272378 0
0.545705 -0.0437236 0
0.536378 -0.0371969 0
0.528535 -0.0303548 0
0.467137 -0.0352566 0
0.4579 -0.0300524 0
0.450143 -0.0245689 0
0.385463 -0.0272378 0
0.376396 -0.0233392 0
0.368788 -0.0192071 0
0.676189 -0.0407465 0
0.669336 -0.0308103 0
0.663993 -0.0206232 0
0.603822 -0.0354104 0
0.597028 -0.0268002 0
0.591784 -0.0179152 0
0.528535 -0.0303548 0
0.521828 -0.0230905 0
0.516702 -0.0155296 0
0.663993 -0.0206232 0
0.659407 -0.0103213 0
0.65625 0 0
0.591784 -0.0179152 0
0.58739 -0.00891149 0
0.584473 0 0
0.516702 -0.0155296 0
0.512487 -0.00779804 0
0.509766 0 0
0.528535 -0.0303548 0
0.521828 -0.0230905 0
0.516702 -0.0155296 0
0.450143 -0.0245689 0
0.443538 -0.0187046 0
0.438546 -0.0125542 0
0.368788 -0.0192071 0
0.362335 -0.0147554 0
0.357506 -0.010034 0
0.516702 -0.0155296 0
0.512487 -0.00779804 0
0.509766 0 0
0.438546 -0.0125542 0
0.434559 -0.00622697 0
0.432129 0 0
0.357506 -0.010034 0
0.353747 -0.00509566 0
0.351562 0 0
0.406743 -0.034387 0
0.395438 -0.0308839 0
0.385463 -0.0272378 0
0.320977 -0.0232461 0
0.310057 -0.020902 0
0.300413 -0.0184623 0
0.229325 -0.0130239 0
0.219472 -0.0117832 0
0.210739 -0.0104986 0
0.385463 -0.0272378 0
0.376396 -0.0233392 0
0.368788 -0.0192071 0
0.300413 -0.0184623 0
0.291636 -0.0158368 0
0.284279 -0.0130364 0
0.210739 -0.0104986 0
0.202783 -0.00910477 0
0.196103 -0.00761576 0
0.229325 -0.0130239 0
0.219472 -0.0117832 0
0.210739 -0.0104986 0
0.126101 -0.00398331 0
0.118987 -0.00357599 0
0.112783 -0.0031712 0
0 0 0
0 0 0
0 0 0
0.210739 -0.0104986 0
0.202783 -0.00910477 0
0.196103 -0.00761576 0
0.112783 -0.0031712 0
0.107048 -0.00271573 0
0.102313 -0.00224421 0
0 0 0
0 0 0
0 0 0
0.368788 -0.0192071 0
0.362335 -0.0147554 0
0.357506 -0.010034 0
0.284279 -0.0130364 0
0.278038 -0.00999201 0
0.273422 -0.00674553 0
0.196103 -0.00761576 0
0.190436 -0.0059808 0
0.186267 -0.00420186 0
0.357506 -0.010034 0
0.353747 -0.00509566 0
0.351562 0 0
0.273422 -0.00674553 0
0.269928 -0.00330592 0
0.268066 0 0
0.186267 -0.00420186 0
0.183186 -0.00224859 0
0.181641 0 0
0.196103 -0.00761576 0
0.190436 -0.0059808 0
0.186267 -0.00420186 0
0.102313 -0.00224421 0
0.0982158 -0.00172552 0
0.0953469 -0.001158 0
0 0 0
0 0 0
0 0 0
0.186267 -0.00420186 0
0.183186 -0.00224859 0
0.181641 0 0
0.0953469 -0.001158 0
0.0931743 -0.000495357 0
0.0922852 0 0
0 0 0
0 0 0
0 0 0
1.76273 -0.265387 0
1.73128 -0.304353 0
1.69404 -0.338785 0
1.67779 -0.219528 0
1.64878 -0.256248 0
1.61617 -0.287951 0
1.59002 -0.185226 0
1.56795 -0.218912 0
1.54153 -0.248573 0
1.69404 -0.338785 0
1.65518 -0.364519 0
1.61206 -0.385058 0
1.61617 -0.287951 0
1.58111 -0.313707 0
1.54347 -0.333863 0
1.54153 -0.248573 0
1.5134 -0.27338 0
1.482 -0.293409 0
1.59002 -0.185226 0
1.56795 -0.218912 0
1.54153 -0.248573 0
1.52076 -0.15966 0
1.50182 -0.188028 0
1.47937 -0.21339 0
1.43634 -0.131937 0
1.41957 -0.157267 0
1.3996 -0.180055 0
1.54153 -0.248573 0
1.5134 -0.27338 0
1.482 -0.293409 0
1.47937 -0.21339 0
1.45457 -0.23485 0
1.42692 -0.252654 0
1.3996 -0.180055 0
1.37769 -0.199803 0
1.3532 -0.21647 0
1.61206 -0.385058 0
1.572 -0.397468 0
1.52936 -0.40441 0
1.54347 -0.333863 0
1.50768 -0.347943 0
1.47055 -0.357287 0
1.482 -0.293409 0
1.45225 -0.308457 0
1.42038 -0.318907 0
1.52936 -0.40441 0
1.49183 -0.405564 0
1.45293 -0.402698 0
1.47055 -0.357287 0
1.43682 -0.361608 0
1.40266 -0.362018 0
1.42038 -0.318907 0
1.39122 -0.324961 0
1.36082 -0.327114 0
1.482 -0.293409 0
1.45225 -0.308457 0
1.42038 -0.318907 0
1.42692 -0.252654 0
1.39973 -0.266348 0
1.37056 -0.276479 0
1.3532 -0.21647 0
1.32905 -0.229848 0
1.30317 -0.240208 0
1.42038 -0.318907 0
1.39122 -0.324961 0
1.36082 -0.327114 0
1.37056 -0.276479 0
1.34303 -0.283 0
1.31434 -0.286378 0
1.30317 -0.240208 0
1.27852 -0.247511 0
1.25283 -0.25205 0
1.43634 -0.131937 0
1.41957 -0.157267 0
1.3996 -0.180055 0
1.35216 -0.113373 0
1.3381 -0.135513 0
1.32106 -0.155617 0
1.27366 -0.0942082 0
1.26114 -0.113854 0
1.24587 -0.131823 0
1.3996 -0.180055 0
1.37769 -0.199803 0
1.3532 -0.21647 0
1.32106 -0.155617 0
1.30231 -0.173163 0
1.28106 -0.188161 0
1.24587 -0.131823 0
1.22896 -0.147638 0
1.20972 -0.161319 0
1.27366 -0.0942082 0
1.26114 -0.113854 0
1.24587 -0.131823 0
1.19202 -0.0781371 0
1.18107 -0.0950494 0
1.16749 -0.110573 0
1.10761 -0.0625612 0
1.09777 -0.0772267 0
1.08549 -0.0907907 0
1.24587 -0.131823 0
1.22896 -0.147638 0
1.20972 -0.161319 0
1.16749 -0.110573 0
1.15236 -0.124343 0
1.13497 -0.136372 0
1.08549 -0.0907907 0
1.07179 -0.102926 0
1.05596 -0.113627 0
1.3532 -0.21647 0
1.32905 -0.229848 0
1.30317 -0.240208 0
1.28106 -0.188161 0
1.25993 -0.200362 0
1.23696 -0.210019 0
1.20972 -0.161319 0
1.19032 -0.172627 0
1.16917 -0.181777 0
1.30317 -0.240208 0
1.27852 -0.247511 0
1.25283 -0.25205 0
1.23696 -0.210019 0
1.21482 -0.21706 0
1.19145 -0.221693 0
1.16917 -0.181777 0
1.14852 -0.188667 0
1.12669 -0.193487 0
1.20972 -0.161319 0
1.19032 -0.172627 0
1.16917 -0.181777 0
1.13497 -0.136372 0
1.11729 -0.146477 0
1.09787 -0.154789 0
1.05596 -0.113627 0
1.03977 -0.122725 0
1.02188 -0.130327 0
1.16917 -0.181777 0
1.14852 -0.188667 0
1.12669 -0.193487 0
1.09787 -0.154789 0
1.07873 -0.161242 0
1.05837 -0.165939 0
1.02188 -0.130327 0
1.00411 -0.136356 0
0.985105 -0.14089 0
1.45293 -0.402698 0
1.42099 -0.396128 0
1.38882 -0.386065 0
1.40266 -0.362018 0
1.37387 -0.358523 0
1.34548 -0.352551 0
1.36082 -0.327114 0
1.33471 -0.32596 0
1.30822 -0.321913 0
1.38882 -0.386065 0
1.36266 -0.374401 0
1.33687 -0.360922 0
1.34548 -0.352551 0
1.32146 -0.344173 0
1.29822 -0.333964 0
1.30822 -0.321913 0
1.28519 -0.315506 0
1.26231 -0.307089 0
1.36082 -0.327114 0
1.33471 -0.32596 0
1.30822 -0.321913 0
1.31434 -0.286378 0
1.28898 -0.28685 0
1.26325 -0.284859 0
1.25283 -0.25205 0
1.22984 -0.254 0
1.20654 -0.253749 0
1.30822 -0.321913 0
1.28519 -0.315506 0
1.26231 -0.307089 0
1.26325 -0.284859 0
1.24056 -0.280821 0
1.2181 -0.274971 0
1.20654 -0.253749 0
1.18562 -0.251507 0
1.16483 -0.247508 0
1.33687 -0.360922 0
1.31697 -0.34691 0
1.29816 -0.331391 0
1.29822 -0.333964 0
1.27965 -0.322145 0
1.26218 -0.309316 0
1.26231 -0.307089 0
1.24336 -0.297278 0
1.2252 -0.286271 0
1.29816 -0.331391 0
1.28342 -0.316316 0
1.26944 -0.301119 0
1.26218 -0.309316 0
1.24757 -0.295689 0
1.23417 -0.281376 0
1.2252 -0.286271 0
1.20962 -0.274619 0
1.19513 -0.262593 0
1.26231 -0.307089 0
1.24336 -0.297278 0
1.2252 -0.286271 0
1.2181 -0.274971 0
1.19934 -0.267756 0
1.18132 -0.25935 0
1.16483 -0.247508 0
1.14701 -0.242055 0
1.12977 -0.235379 0
1.2252 -0.286271 0
1.20962 -0.274619 0
1.19513 -0.262593 0
1.18132 -0.25935 0
1.16572 -0.250116 0
1.15104 -0.240049 0
1.12977 -0.235379 0
1.11439 -0.227712 0
1.0998 -0.219204 0
1.25283 -0.25205 0
1.22984 -0.254 0
1.20654 -0.253749 0
1.19145 -0.221693 0
1.17017 -0.22408 0
1.14831 -0.224527 0
1.12669 -0.193487 0
1.10646 -0.196342 0
1.08566 -0.197498 0
1.20654 -0.253749 0
1.18562 -0.251507 0
1.16483 -0.247508 0
1.14831 -0.224527 0
1.12833 -0.223239 0
1.10827 -0.220338 0
1.08566 -0.197498 0
1.06644 -0.197088 0
1.04711 -0.195244 0
1.12669 -0.193487 0
1.10646 -0.196342 0
1.08566 -0.197498 0
1.05837 -0.165939 0
1.03927 -0.168982 0
1.0195 -0.170534 0
0.985105 -0.14089 0
0.967026 -0.143997 0
0.948212 -0.145825 0
1.08566 -0.197498 0
1.06644 -0.197088 0
1.04711 -0.195244 0
1.0195 -0.170534 0
1.00099 -0.170729 0
0.982257 -0.169644 0
0.948212 -0.145825 0
0.930391 -0.146468 0
0.912261 -0.145987 0
1.16483 -0.247508 0
1.14701 -0.242055 0
1.12977 -0.235379 0
1.10827 -0.220338 0
1.09075 -0.21616 0
1.07363 -0.210896 0
1.04711 -0.195244 0
1.02997 -0.192217 0
1.01316 -0.188161 0
1.12977 -0.235379 0
1.11439 -0.227712 0
1.0998 -0.219204 0
1.07363 -0.210896 0
1.05826 -0.204771 0
1.04355 -0.197764 0
1.01316 -0.188161 0
0.997897 -0.183216 0
0.983206 -0.177417 0
1.04711 -0.195244 0
1.02997 -0.192217 0
1.01316 -0.188161 0
0.982257 -0.169644 0
0.965339 -0.167498 0
0.948633 -0.164403 0
0.912261 -0.145987 0
0.895648 -0.144565 0
0.879169 -0.142305 0
1.01316 -0.188161 0
0.997897 -0.183216 0
0.983206 -0.177417 0
0.948633 -0.164403 0
0.933268 -0.16051 0
0.918396 -0.155847 0
0.879169 -0.142305 0
0.863878 -0.139315 0
0.849016 -0.135605 0
1.10761 -0.0625612 0
1.09777 -0.0772267 0
1.08549 -0.0907907 0
1.02322 -0.0505901 0
1.01423 -0.0629444 0
1.00296 -0.0744061 0
0.937976 -0.0380209 0
0.929373 -0.0484449 0
0.918604 -0.0581559 0
1.08549 -0.0907907 0
1.07179 -0.102926 0
1.05596 -0.113627 0
1.00296 -0.0744061 0
0.990378 -0.084697 0
0.975765 -0.0938058 0
0.918604 -0.0581559 0
0.906667 -0.0669115 0
0.892804 -0.0747027 0
0.937976 -0.0380209 0
0.929373 -0.0484449 0
0.918604 -0.0581559 0
0.850285 -0.0275205 0
0.842077 -0.0359936 0
0.831788 -0.0438999 0
0.757744 -0.0169792 0
0.749982 -0.0236586 0
0.740106 -0.0299233 0
0.918604 -0.0581559 0
0.906667 -0.0669115 0
0.892804 -0.0747027 0
0.831788 -0.0438999 0
0.820403 -0.0510406 0
0.80715 -0.0574126 0
0.740106 -0.0299233 0
0.729203 -0.0356048 0
0.716436 -0.0406984 0
1.05596 -0.113627 0
1.03977 -0.122725 0
1.02188 -0.130327 0
0.975765 -0.0938058 0
0.960706 -0.101596 0
0.944003 -0.108151 0
0.892804 -0.0747027 0
0.878492 -0.0814131 0
0.862603 -0.0871072 0
1.02188 -0.130327 0
1.00411 -0.136356 0
0.985105 -0.14089 0
0.944003 -0.108151 0
0.927293 -0.113411 0
0.909342 -0.117426 0
0.862603 -0.0871072 0
0.846668 -0.0917338 0
0.82953 -0.0953254 0
0.892804 -0.0747027 0
0.878492 -0.0814131 0
0.862603 -0.0871072 0
0.80715 -0.0574126 0
0.793432 -0.0629205 0
0.77817 -0.0676113 0
0.716436 -0.0406984 0
0.703196 -0.0451267 0
0.688421 -0.0489229 0
0.862603 -0.0871072 0
0.846668 -0.0917338 0
0.82953 -0.0953254 0
0.77817 -0.0676113 0
0.762826 -0.0714473 0
0.74629 -0.0744436 0
0.688421 -0.0489229 0
0.673556 -0.0520598 0
0.657516 -0.0545379 0
0.757744 -0.0169792 0
0.749982 -0.0236586 0
0.740106 -0.0299233 0
0.652002 -0.00852272 0
0.645778 -0.0133247 0
0.637299 -0.0178521 0
0.513942 -0.00149221 0
0.510724 -0.00433127 0
0.505098 -0.00704618 0
0.740106 -0.0299233 0
0.729203 -0.0356048 0
0.716436 -0.0406984 0
0.637299 -0.0178521 0
0.627702 -0.0219712 0
0.616111 -0.0256795 0
0.505098 -0.00704618 0
0.498239 -0.00954651 0
0.489276 -0.0118266 0
0.513942 -0.00149221 0
0.510724 -0.00433127 0
0.505098 -0.00704618 0
0.312832 -6.4341e-05 0
0.313429 -0.00100387 0
0.311855 -0.00191087 0
0 0 0
0 0 0
0 0 0
0.505098 -0.00704618 0
0.498239 -0.00954651 0
0.489276 -0.0118266 0
0.311855 -0.00191087 0
0.309384 -0.00274191 0
0.304912 -0.00349668 0
0 0 0
0 0 0
0 0 0
0.716436 -0.0406984 0
0.703196 -0.0451267 0
0.688421 -0.0489229 0
0.616111 -0.0256795 0
0.603946 -0.0289172 0
0.590143 -0.031705 0
0.489276 -0.0118266 0
0.479564 -0.01385 0
0.468127 -0.0156173 0
0.688421 -0.0489229 0
0.673556 -0.0520598 0
0.657516 -0.0545379 0