# vtk DataFile Version 3.0
#This file was generated by the deal.II library on 2025/1/7 at 22:48:13
ASCII
DATASET UNSTRUCTURED_GRID

POINTS 34560 double
1.1 1.1 0
1.03125 1.09531 0
0.9625 1.09063 0
1.09375 1.03125 0
1.02539 1.02686 0
0.957031 1.02246 0
1.0875 0.9625 0
1.01953 0.958398 0
0.951563 0.954297 0
0.9625 1.09063 0
0.89375 1.08594 0
0.825 1.08125 0
0.957031 1.02246 0
0.888672 1.01807 0
0.820312 1.01367 0
0.951563 0.954297 0
0.883594 0.950195 0
0.815625 0.946094 0
1.0875 0.9625 0
1.01953 0.958398 0
0.951563 0.954297 0
1.08125 0.89375 0
1.01367 0.889941 0
0.946094 0.886133 0
1.075 0.825 0
1.00781 0.821484 0
0.940625 0.817969 0
0.951563 0.954297 0
0.883594 0.950195 0
0.815625 0.946094 0
0.946094 0.886133 0
0.878516 0.882324 0
0.810938 0.878516 0
0.940625 0.817969 0
0.873438 0.814453 0
0.80625 0.810937 0
0.825 1.08125 0
0.75625 1.07656 0
0.6875 1.07187 0
0.820312 1.01367 0
0.751953 1.00928 0
0.683594 1.00488 0
0.815625 0.946094 0
0.747656 0.941992 0
0.679688 0.937891 0
0.6875 1.07187 0
0.61875 1.06719 0
0.55 1.0625 0
0.683594 1.00488 0
0.615234 1.00049 0
0.546875 0.996094 0
0.679688 0.937891 0
0.611719 0.933789 0
0.54375 0.929688 0
0.815625 0.946094 0
0.747656 0.941992 0
0.679688 0.937891 0
0.810938 0.878516 0
0.743359 0.874707 0
0.675781 0.870898 0
0.80625 0.810937 0
0.739063 0.807422 0
0.671875 0.803906 0
0.679688 0.937891 0
0.611719 0.933789 0
0.54375 0.929688 0
0.675781 0.870898 0
0.608203 0.86709 0
0.540625 0.863281 0
0.671875 0.803906 0
0.604688 0.800391 0
0.5375 0.796875 0
1.075 0.825 0
1.00781 0.821484 0
0.940625 0.817969 0
1.06875 0.75625 0
1.00195 0.753027 0
0.935156 0.749805 0
1.0625 0.6875 0
0.996094 0.68457 0
0.929688 0.681641 0
0.940625 0.817969 0
0.873438 0.814453 0
0.80625 0.810937 0
0.935156 0.749805 0
0.868359 0.746582 0
0.801563 0.743359 0
0.929688 0.681641 0
0.863281 0.678711 0
0.796875 0.675781 0
1.0625 0.6875 0
0.996094 0.68457 0
0.929688 0.681641 0
1.05625 0.61875 0
0.990234 0.616113 0
0.924219 0.613477 0
1.05 0.55 0
0.984375 0.547656 0
0.91875 0.545313 0
0.929688 0.681641 0
0.863281 0.678711 0
0.796875 0.675781 0
0.924219 0.613477 0
0.858203 0.61084 0
0.792188 0.608203 0
0.91875 0.545313 0
0.853125 0.542969 0
0.7875 0.540625 0
0.80625 0.810937 0
0.739063 0.807422 0
0.671875 0.803906 0
0.801563 0.743359 0
0.734766 0.740137 0
0.667969 0.736914 0
0.796875 0.675781 0
0.730469 0.672852 0
0.664062 0.669922 0
0.671875 0.803906 0
0.604688 0.800391 0
0.5375 0.796875 0
0.667969 0.736914 0
0.601172 0.733691 0
0.534375 0.730469 0
0.664062 0.669922 0
0.597656 0.666992 0
0.53125 0.664062 0
0.796875 0.675781 0
0.730469 0.672852 0
0.664062 0.669922 0
0.792188 0.608203 0
0.726172 0.605566 0
0.660156 0.60293 0
0.7875 0.540625 0
0.721875 0.538281 0
0.65625 0.535937 0
0.664062 0.669922 0
0.597656 0.666992 0
0.53125 0.664062 0
0.660156 0.60293 0
0.594141 0.600293 0
0.528125 0.597656 0
0.65625 0.535937 0
0.590625 0.533594 0
0.525 0.53125 0
0.55 1.0625 0
0.48125 1.05781 0
0.4125 1.05313 0
0.546875 0.996094 0
0.478516 0.991699 0
0.410156 0.987305 0
0.54375 0.929688 0
0.475781 0.925586 0
0.407813 0.921484 0
0.4125 1.05313 0
0.34375 1.04844 0
0.275 1.04375 0
0.410156 0.987305 0
0.341797 0.98291 0
0.273438 0.978516 0
0.407813 0.921484 0
0.339844 0.917383 0
0.271875 0.913281 0
0.54375 0.929688 0
0.475781 0.925586 0
0.407813 0.921484 0
0.540625 0.863281 0
0.473047 0.859473 0
0.405469 0.855664 0
0.5375 0.796875 0
0.470313 0.793359 0
0.403125 0.789844 0
0.407813 0.921484 0
0.339844 0.917383 0
0.271875 0.913281 0
0.405469 0.855664 0
0.337891 0.851855 0
0.270313 0.848047 0
0.403125 0.789844 0
0.335938 0.786328 0
0.26875 0.782813 0
0.275 1.04375 0
0.20625 1.03906 0
0.1375 1.03437 0
0.273438 0.978516 0
0.205078 0.974121 0
0.136719 0.969727 0
0.271875 0.913281 0
0.203906 0.90918 0
0.135938 0.905078 0
0.1375 1.03437 0
0.06875 1.02969 0
0 1.025 0
0.136719 0.969727 0
0.0683594 0.965332 0
0 0.960937 0
0.135938 0.905078 0
0.0679688 0.900977 0
0 0.896875 0
0.271875 0.913281 0
0.203906 0.90918 0
0.135938 0.905078 0
0.270313 0.848047 0
0.202734 0.844238 0
0.135156 0.84043 0
0.26875 0.782813 0
0.201563 0.779297 0
0.134375 0.775781 0
0.135938 0.905078 0
0.0679688 0.900977 0
0 0.896875 0
0.135156 0.84043 0
0.0675781 0.836621 0
0 0.832812 0
0.134375 0.775781 0
0.0671875 0.772266 0
0 0.76875 0
0.5375 0.796875 0
0.470313 0.793359 0
0.403125 0.789844 0
0.534375 0.730469 0
0.467578 0.727246 0
0.400781 0.724023 0
0.53125 0.664062 0
0.464844 0.661133 0
0.398438 0.658203 0
0.403125 0.789844 0
0.335938 0.786328 0
0.26875 0.782813 0
0.400781 0.724023 0
0.333984 0.720801 0
0.267188 0.717578 0
0.398438 0.658203 0
0.332031 0.655273 0
0.265625 0.652344 0
0.53125 0.664062 0
0.464844 0.661133 0
0.398438 0.658203 0
0.528125 0.597656 0
0.462109 0.59502 0
0.396094 0.592383 0
0.525 0.53125 0
0.459375 0.528906 0
0.39375 0.526563 0
0.398438 0.658203 0
0.332031 0.655273 0
0.265625 0.652344 0
0.396094 0.592383 0
0.330078 0.589746 0
0.264062 0.587109 0
0.39375 0.526563 0
0.328125 0.524219 0
0.2625 0.521875 0
0.26875 0.782813 0
0.201563 0.779297 0
0.134375 0.775781 0
0.267188 0.717578 0
0.200391 0.714355 0
0.133594 0.711133 0
0.265625 0.652344 0
0.199219 0.649414 0
0.132812 0.646484 0
0.134375 0.775781 0
0.0671875 0.772266 0
0 0.76875 0
0.133594 0.711133 0
0.0667969 0.70791 0
0 0.704687 0
0.132812 0.646484 0
0.0664062 0.643555 0
0 0.640625 0
0.265625 0.652344 0
0.199219 0.649414 0
0.132812 0.646484 0
0.264062 0.587109 0
0.198047 0.584473 0
0.132031 0.581836 0
0.2625 0.521875 0
0.196875 0.519531 0
0.13125 0.517187 0
0.132812 0.646484 0
0.0664062 0.643555 0
0 0.640625 0
0.132031 0.581836 0
0.0660156 0.579199 0
0 0.576562 0
0.13125 0.517187 0
0.065625 0.514844 0
0 0.5125 0
1.05 0.55 0
0.984375 0.547656 0
0.91875 0.545313 0
1.04375 0.48125 0
0.978516 0.479199 0
0.913281 0.477148 0
1.0375 0.4125 0
0.972656 0.410742 0
0.907813 0.408984 0
0.91875 0.545313 0
0.853125 0.542969 0
0.7875 0.540625 0
0.913281 0.477148 0
0.848047 0.475098 0
0.782813 0.473047 0
0.907813 0.408984 0
0.842969 0.407227 0
0.778125 0.405469 0
1.0375 0.4125 0
0.972656 0.410742 0
0.907813 0.408984 0
1.03125 0.34375 0
0.966797 0.342285 0
0.902344 0.34082 0
1.025 0.275 0
0.960937 0.273828 0
0.896875 0.272656 0
0.907813 0.408984 0
0.842969 0.407227 0
0.778125 0.405469 0
0.902344 0.34082 0
0.837891 0.339355 0
0.773438 0.337891 0
0.896875 0.272656 0
0.832812 0.271484 0
0.76875 0.270313 0
0.7875 0.540625 0
0.721875 0.538281 0
0.65625 0.535937 0
0.782813 0.473047 0
0.717578 0.470996 0
0.652344 0.468945 0
0.778125 0.405469 0
0.713281 0.403711 0
0.648438 0.401953 0
0.65625 0.535937 0
0.590625 0.533594 0
0.525 0.53125 0
0.652344 0.468945 0
0.587109 0.466895 0
0.521875 0.464844 0
0.648438 0.401953 0
0.583594 0.400195 0
0.51875 0.398438 0
0.778125 0.405469 0
0.713281 0.403711 0
0.648438 0.401953 0
0.773438 0.337891 0
0.708984 0.336426 0
0.644531 0.334961 0
0.76875 0.270313 0
0.704687 0.269141 0
0.640625 0.267969 0
0.648438 0.401953 0
0.583594 0.400195 0
0.51875 0.398438 0
0.644531 0.334961 0
0.580078 0.333496 0
0.515625 0.332031 0
0.640625 0.267969 0
0.576562 0.266797 0
0.5125 0.265625 0
1.025 0.275 0
0.960937 0.273828 0
0.896875 0.272656 0
1.01875 0.20625 0
0.955078 0.205371 0
0.891406 0.204492 0
1.0125 0.1375 0
0.949219 0.136914 0
0.885937 0.136328 0
0.896875 0.272656 0
0.832812 0.271484 0
0.76875 0.270313 0
0.891406 0.204492 0
0.827734 0.203613 0
0.764062 0.202734 0
0.885937 0.136328 0
0.822656 0.135742 0
0.759375 0.135156 0
1.0125 0.1375 0
0.949219 0.136914 0
0.885937 0.136328 0
1.00625 0.06875 0
0.943359 0.068457 0
0.880469 0.0681641 0
1 0 0
0.9375 0 0
0.875 0 0
0.885937 0.136328 0
0.822656 0.135742 0
0.759375 0.135156 0
0.880469 0.0681641 0
0.817578 0.0678711 0
0.754687 0.0675781 0
0.875 0 0
0.8125 0 0
0.75 0 0
0.76875 0.270313 0
0.704687 0.269141 0
0.640625 0.267969 0
0.764062 0.202734 0
0.700391 0.201855 0
0.636719 0.200977 0
0.759375 0.135156 0
0.696094 0.13457 0
0.632812 0.133984 0
0.640625 0.267969 0
0.576562 0.266797 0
0.5125 0.265625 0
0.636719 0.200977 0
0.573047 0.200098 0
0.509375 0.199219 0
0.632812 0.133984 0
0.569531 0.133398 0
0.50625 0.132812 0
0.759375 0.135156 0
0.696094 0.13457 0
0.632812 0.133984 0
0.754687 0.0675781 0
0.691797 0.0672852 0
0.628906 0.0669922 0
0.75 0 0
0.6875 0 0
0.625 0 0
0.632812 0.133984 0
0.569531 0.133398 0
0.50625 0.132812 0
0.628906 0.0669922 0
0.566016 0.0666992 0
0.503125 0.0664062 0
0.625 0 0
0.5625 0 0
0.5 0 0
0.525 0.53125 0
0.459375 0.528906 0
0.39375 0.526563 0
0.521875 0.464844 0
0.456641 0.462793 0
0.391406 0.460742 0
0.51875 0.398438 0
0.453906 0.39668 0
0.389063 0.394922 0
0.39375 0.526563 0
0.328125 0.524219 0
0.2625 0.521875 0
0.391406 0.460742 0
0.326172 0.458691 0
0.260938 0.456641 0
0.389063 0.394922 0
0.324219 0.393164 0
0.259375 0.391406 0
0.51875 0.398438 0
0.453906 0.39668 0
0.389063 0.394922 0
0.515625 0.332031 0
0.451172 0.330566 0
0.386719 0.329102 0
0.5125 0.265625 0
0.448437 0.264453 0
0.384375 0.263281 0
0.389063 0.394922 0
0.324219 0.393164 0
0.259375 0.391406 0
0.386719 0.329102 0
0.322266 0.327637 0
0.257812 0.326172 0
0.384375 0.263281 0
0.320312 0.262109 0
0.25625 0.260937 0
0.2625 0.521875 0
0.196875 0.519531 0
0.13125 0.517187 0
0.260938 0.456641 0
0.195703 0.45459 0
0.130469 0.452539 0
0.259375 0.391406 0
0.194531 0.389648 0
0.129688 0.387891 0
0.13125 0.517187 0
0.065625 0.514844 0
0 0.5125 0
0.130469 0.452539 0
0.0652344 0.450488 0
0 0.448437 0
0.129688 0.387891 0
0.0648438 0.386133 0
0 0.384375 0
0.259375 0.391406 0
0.194531 0.389648 0
0.129688 0.387891 0
0.257812 0.326172 0
0.193359 0.324707 0
0.128906 0.323242 0
0.25625 0.260937 0
0.192187 0.259766 0
0.128125 0.258594 0
0.129688 0.387891 0
0.0648438 0.386133 0
0 0.384375 0
0.128906 0.323242 0
0.0644531 0.321777 0
0 0.320312 0
0.128125 0.258594 0
0.0640625 0.257422 0
0 0.25625 0
0.5125 0.265625 0
0.448437 0.264453 0
0.384375 0.263281 0
0.509375 0.199219 0
0.445703 0.19834 0
0.382031 0.197461 0
0.50625 0.132812 0
0.442969 0.132227 0
0.379688 0.131641 0
0.384375 0.263281 0
0.320312 0.262109 0
0.25625 0.260937 0
0.382031 0.197461 0
0.318359 0.196582 0
0.254687 0.195703 0
[...]
POINT_DATA 34560
VECTORS v double
1.18858 -0.195441 0
1.18079 -0.171592 0
1.17422 -0.151198 0
1.15568 -0.186041 0
1.14603 -0.165034 0
1.13811 -0.146047 0
1.12015 -0.176015 0
1.10919 -0.156709 0
1.09934 -0.139193 0
1.17422 -0.151198 0
1.16879 -0.132451 0
1.1643 -0.116438 0
1.13811 -0.146047 0
1.1308 -0.128907 0
1.12505 -0.11374 0
1.09934 -0.139193 0
1.0906 -0.123325 0
1.08295 -0.109106 0
1.12015 -0.176015 0
1.10919 -0.156709 0
1.09934 -0.139193 0
1.07816 -0.162426 0
1.06565 -0.145369 0
1.05446 -0.12977 0
1.02961 -0.149764 0
1.01641 -0.134552 0
1.00439 -0.120505 0
1.09934 -0.139193 0
1.0906 -0.123325 0
1.08295 -0.109106 0
1.05446 -0.12977 0
1.04436 -0.115541 0
1.03546 -0.102699 0
1.00439 -0.120505 0
0.993531 -0.107611 0
0.983775 -0.0958878 0
1.1643 -0.116438 0
1.16025 -0.101829 0
1.15691 -0.0892205 0
1.12505 -0.11374 0
1.11929 -0.100029 0
1.1149 -0.0879324 0
1.08295 -0.109106 0
1.07589 -0.0962768 0
1.06987 -0.0848067 0
1.15691 -0.0892205 0
1.15344 -0.0776618 0
1.15046 -0.0675074 0
1.1149 -0.0879324 0
1.10994 -0.0768404 0
1.10609 -0.0669585 0
1.06987 -0.0848067 0
1.0638 -0.0743374 0
1.05865 -0.0648652 0
1.08295 -0.109106 0
1.07589 -0.0962768 0
1.06987 -0.0848067 0
1.03546 -0.102699 0
1.02725 -0.0909908 0
1.02012 -0.0805052 0
0.983775 -0.0958878 0
0.974761 -0.0851842 0
0.966786 -0.0755324 0
1.06987 -0.0848067 0
1.0638 -0.0743374 0
1.05865 -0.0648652 0
1.02012 -0.0805052 0
1.01315 -0.0708464 0
1.00711 -0.062045 0
0.966786 -0.0755324 0
0.959099 -0.0666192 0
0.952345 -0.058465 0
1.02961 -0.149764 0
1.01641 -0.134552 0
1.00439 -0.120505 0
0.975874 -0.135988 0
0.962159 -0.122557 0
0.949564 -0.110062 0
0.917439 -0.122776 0
0.903413 -0.110864 0
0.890414 -0.0997153 0
1.00439 -0.120505 0
0.993531 -0.107611 0
0.983775 -0.0958878 0
0.949564 -0.110062 0
0.938086 -0.0985265 0
0.927653 -0.0880055 0
0.890414 -0.0997153 0
0.878529 -0.0893897 0
0.867615 -0.0799324 0
0.917439 -0.122776 0
0.903413 -0.110864 0
0.890414 -0.0997153 0
0.853806 -0.108346 0
0.839598 -0.0980128 0
0.826413 -0.0882945 0
0.785363 -0.0948388 0
0.771221 -0.0858794 0
0.758045 -0.0774048 0
0.890414 -0.0997153 0
0.878529 -0.0893897 0
0.867615 -0.0799324 0
0.826413 -0.0882945 0
0.814301 -0.0792478 0
0.803135 -0.0709359 0
0.758045 -0.0774048 0
0.745915 -0.0694839 0
0.734684 -0.0621801 0
0.983775 -0.0958878 0
0.974761 -0.0851842 0
0.966786 -0.0755324 0
0.927653 -0.0880055 0
0.918008 -0.0783688 0
0.909344 -0.0696595 0
0.867615 -0.0799324 0
0.857528 -0.0712664 0
0.848362 -0.0634262 0
0.966786 -0.0755324 0
0.959099 -0.0666192 0
0.952345 -0.058465 0
0.909344 -0.0696595 0
0.901105 -0.0616052 0
0.893766 -0.0542259 0
0.848362 -0.0634262 0
0.839714 -0.0561885 0
0.831927 -0.0495557 0
0.867615 -0.0799324 0
0.857528 -0.0712664 0
0.848362 -0.0634262 0
0.803135 -0.0709359 0
0.792794 -0.0633063 0
0.783334 -0.0564076 0
0.734684 -0.0621801 0
0.724277 -0.0554776 0
0.714698 -0.0494238 0
0.848362 -0.0634262 0
0.839714 -0.0561885 0
0.831927 -0.0495557 0
0.783334 -0.0564076 0
0.774438 -0.0500525 0
0.766368 -0.0442475 0
0.714698 -0.0494238 0
0.705715 -0.0438829 0
0.697505 -0.0388492 0
1.15046 -0.0675074 0
1.1473 -0.0579902 0
1.1445 -0.0493046 0
1.10609 -0.0669585 0
1.10177 -0.0576832 0
1.09836 -0.0491464 0
1.05865 -0.0648652 0
1.05349 -0.0559963 0
1.04916 -0.0477519 0
1.1445 -0.0493046 0
1.14127 -0.0408935 0
1.13825 -0.0329087 0
1.09836 -0.0491464 0
1.09424 -0.0408382 0
1.09082 -0.0329169 0
1.04916 -0.0477519 0
1.04443 -0.0397464 0
1.04039 -0.0320205 0
1.05865 -0.0648652 0
1.05349 -0.0559963 0
1.04916 -0.0477519 0
1.00711 -0.062045 0
1.00126 -0.0537252 0
0.996255 -0.045979 0
0.952345 -0.058465 0
0.945903 -0.0507456 0
0.940324 -0.0435117 0
1.04916 -0.0477519 0
1.04443 -0.0397464 0
1.04039 -0.0320205 0
0.996255 -0.045979 0
0.991086 -0.0384034 0
0.986624 -0.0310169 0
0.940324 -0.0435117 0
0.934757 -0.0363977 0
0.929941 -0.0294358 0
1.13825 -0.0329087 0
1.135 -0.024874 0
1.13191 -0.0168546 0
1.09082 -0.0329169 0
1.08702 -0.0249388 0
1.08381 -0.0169485 0
1.04039 -0.0320205 0
1.03626 -0.0242381 0
1.03275 -0.0164358 0
1.13191 -0.0168546 0
1.12839 -0.00852697 0
1.125 0 0
1.08381 -0.0169485 0
1.08 -0.00860951 0
1.07666 0 0
1.03275 -0.0164358 0
1.0288 -0.0083391 0
1.02539 0 0
1.04039 -0.0320205 0
1.03626 -0.0242381 0
1.03275 -0.0164358 0
0.986624 -0.0310169 0
0.982255 -0.0235249 0
0.978541 -0.0160151 0
0.929941 -0.0294358 0
0.925334 -0.0223554 0
0.921431 -0.0152172 0
1.03275 -0.0164358 0
1.0288 -0.0083391 0
1.02539 0 0
0.978541 -0.0160151 0
0.974585 -0.00818431 0
0.971191 0 0
0.921431 -0.0152172 0
0.917431 -0.0077567 0
0.914062 0 0
0.952345 -0.058465 0
0.945903 -0.0507456 0
0.940324 -0.0435117 0
0.893766 -0.0542259 0
0.886879 -0.0472137 0
0.880844 -0.0406121 0
0.831927 -0.0495557 0
0.824694 -0.0432517 0
0.818306 -0.037306 0
0.940324 -0.0435117 0
0.934757 -0.0363977 0
0.929941 -0.0294358 0
0.880844 -0.0406121 0
0.875001 -0.0340844 0
0.869927 -0.0276619 0
0.818306 -0.037306 0
0.812248 -0.0314028 0
0.806973 -0.0255604 0
0.831927 -0.0495557 0
0.824694 -0.0432517 0
0.818306 -0.037306 0
0.766368 -0.0442475 0
0.758919 -0.0387367 0
0.752302 -0.0335388 0
0.697505 -0.0388492 0
0.689954 -0.0341011 0
0.683205 -0.0296383 0
0.818306 -0.037306 0
0.812248 -0.0314028 0
0.806973 -0.0255604 0
0.752302 -0.0335388 0
0.746123 -0.028348 0
0.740741 -0.0231786 0
0.683205 -0.0296383 0
0.676977 -0.0251705 0
0.671547 -0.0206949 0
0.929941 -0.0294358 0
0.925334 -0.0223554 0
0.921431 -0.0152172 0
0.869927 -0.0276619 0
0.865198 -0.0210781 0
0.861206 -0.014393 0
0.806973 -0.0255604 0
0.80215 -0.0195279 0
0.798093 -0.0133642 0
0.921431 -0.0152172 0
0.917431 -0.0077567 0
0.914062 0 0
0.861206 -0.014393 0
0.857269 -0.00736259 0
0.854004 0 0
0.798093 -0.0133642 0
0.794197 -0.00684906 0
0.791016 0 0
0.806973 -0.0255604 0
0.80215 -0.0195279 0
0.798093 -0.0133642 0
0.740741 -0.0231786 0
0.735909 -0.0177826 0
0.731878 -0.0122192 0
0.671547 -0.0206949 0
0.666743 -0.0159662 0
0.662761 -0.0110361 0
0.798093 -0.0133642 0
0.794197 -0.00684906 0
0.791016 0 0
0.731878 -0.0122192 0
0.728111 -0.00628263 0
0.725098 0 0
0.662761 -0.0110361 0
0.659113 -0.00571186 0
0.65625 0 0
0.785363 -0.0948388 0
0.771221 -0.0858794 0
0.758045 -0.0774048 0
0.712351 -0.0805549 0
0.698307 -0.0729591 0
0.685225 -0.0657521 0
0.634833 -0.0671259 0
0.621011 -0.0607796 0
0.608134 -0.0547387 0
0.758045 -0.0774048 0
0.745915 -0.0694839 0
0.734684 -0.0621801 0
0.685225 -0.0657521 0
0.67316 -0.0589957 0
0.661988 -0.0527526 0
0.608134 -0.0547387 0
0.596265 -0.0490595 0
0.585281 -0.0437999 0
0.634833 -0.0671259 0
0.621011 -0.0607796 0
0.608134 -0.0547387 0
0.55299 -0.0529801 0
0.539375 -0.047903 0
0.526732 -0.0430679 0
0.466234 -0.0396544 0
0.452957 -0.0357986 0
0.440668 -0.032126 0
0.608134 -0.0547387 0
0.596265 -0.0490595 0
0.585281 -0.0437999 0
0.526732 -0.0430679 0
0.515096 -0.0385203 0
0.50437 -0.0343092 0
0.440668 -0.032126 0
0.42941 -0.028672 0
0.419089 -0.0254796 0
0.734684 -0.0621801 0
0.724277 -0.0554776 0
0.714698 -0.0494238 0
0.661988 -0.0527526 0
0.651644 -0.0470196 0
0.64211 -0.0418504 0
0.585281 -0.0437999 0
0.575139 -0.0389678 0
0.565793 -0.0346186 0
0.714698 -0.0494238 0
0.705715 -0.0438829 0
0.697505 -0.0388492 0
0.64211 -0.0418504 0
0.633188 -0.0371448 0
0.624999 -0.0329072 0
0.565793 -0.0346186 0
0.557085 -0.0306894 0
0.549073 -0.0271847 0
0.585281 -0.0437999 0
0.575139 -0.0389678 0
0.565793 -0.0346186 0
0.50437 -0.0343092 0
0.49451 -0.0304426 0
0.485466 -0.0269744 0
0.419089 -0.0254796 0
0.409667 -0.0225541 0
0.401081 -0.0199414 0
0.565793 -0.0346186 0
0.557085 -0.0306894 0
0.549073 -0.0271847 0
0.485466 -0.0269744 0
0.477101 -0.023858 0
0.469428 -0.0211031 0
0.401081 -0.0199414 0
0.393224 -0.0176084 0
0.386062 -0.0155642 0
0.466234 -0.0396544 0
0.452957 -0.0357986 0
0.440668 -0.032126 0
0.372974 -0.0257985 0
0.360309 -0.0232032 0
0.348689 -0.0207463 0
0.268342 -0.0135947 0
0.257553 -0.0122303 0
0.24774 -0.0109469 0
0.440668 -0.032126 0
0.42941 -0.028672 0
0.419089 -0.0254796 0
0.348689 -0.0207463 0
0.338119 -0.0184512 0
0.328523 -0.016348 0
0.24774 -0.0109469 0
0.238887 -0.0097487 0
0.230922 -0.00866045 0
0.268342 -0.0135947 0
0.257553 -0.0122303 0
0.24774 -0.0109469 0
0.148001 -0.00385288 0
0.141191 -0.00343789 0
0.135031 -0.00305766 0
0 0 0
0 0 0
0 0 0
0.24774 -0.0109469 0
0.238887 -0.0097487 0
0.230922 -0.00866045 0
0.135031 -0.00305766 0
0.129484 -0.00270943 0
0.12449 -0.00240584 0
0 0 0
0 0 0
0 0 0
0.419089 -0.0254796 0
0.409667 -0.0225541 0
0.401081 -0.0199414 0
0.328523 -0.016348 0
0.319846 -0.0144352 0
0.312021 -0.0127446 0
0.230922 -0.00866045 0
0.223777 -0.00766987 0
0.217377 -0.00680206 0
0.401081 -0.0199414 0
0.393224 -0.0176084 0
0.386062 -0.0155642 0
0.312021 -0.0127446 0
0.304947 -0.01125 0
0.298561 -0.009956 0
0.217377 -0.00680206 0
0.21164 -0.00603665 0
0.206485 -0.0053818 0
0.230922 -0.00866045 0
0.223777 -0.00766987 0
0.217377 -0.00680206 0
0.12449 -0.00240584 0
0.120009 -0.00213213 0
0.115957 -0.00190288 0
0 0 0
0 0 0
0 0 0
0.217377 -0.00680206 0
0.21164 -0.00603665 0
0.206485 -0.0053818 0
0.115957 -0.00190288 0
0.112311 -0.00169838 0
0.108985 -0.00153406 0
0 0 0
0 0 0
0 0 0
0.697505 -0.0388492 0
0.689954 -0.0341011 0
0.683205 -0.0296383 0
0.624999 -0.0329072 0
0.617477 -0.0289507 0
0.61072 -0.0252662 0
0.549073 -0.0271847 0
0.541722 -0.023965 0
0.535081 -0.0210146 0
0.683205 -0.0296383 0
0.676977 -0.0251705 0
0.671547 -0.0206949 0
0.61072 -0.0252662 0
0.60453 -0.0215751 0
0.599132 -0.0178587 0
0.535081 -0.0210146 0
0.529023 -0.0180791 0
0.523727 -0.0151137 0
0.549073 -0.0271847 0
0.541722 -0.023965 0
0.535081 -0.0210146 0
0.469428 -0.0211031 0
0.462406 -0.0186076 0
0.45605 -0.016372 0
0.386062 -0.0155642 0
0.379547 -0.0137414 0
0.373653 -0.0121509 0
0.535081 -0.0210146 0
0.529023 -0.0180791 0
0.523727 -0.0151137 0
0.45605 -0.016372 0
0.45025 -0.0141793 0
0.44516 -0.011973 0
0.373653 -0.0121509 0
0.368274 -0.0106315 0
0.363525 -0.00911853 0
0.671547 -0.0206949 0
0.666743 -0.0159662 0
0.662761 -0.0110361 0
0.599132 -0.0178587 0
0.594423 -0.0138659 0
0.59056 -0.00963955 0
0.523727 -0.0151137 0
0.519157 -0.0118617 0
0.515446 -0.00835216 0
0.662761 -0.0110361 0
0.659113 -0.00571186 0
0.65625 0 0
0.59056 -0.00963955 0
0.587106 -0.00500224 0
0.584473 0 0
0.515446 -0.00835216 0
0.512184 -0.0044035 0
0.509766 0 0
0.523727 -0.0151137 0
0.519157 -0.0118617 0
0.515446 -0.00835216 0
0.44516 -0.011973 0
0.440792 -0.0094967 0
0.437278 -0.00675852 0
0.363525 -0.00911853 0
0.359442 -0.00737735 0
0.356176 -0.00538818 0
0.515446 -0.00835216 0
0.512184 -0.0044035 0
0.509766 0 0
0.437278 -0.00675852 0
0.434264 -0.00357694 0
0.432129 0 0
0.356176 -0.00538818 0
0.353425 -0.00295331 0
0.351562 0 0
0.386062 -0.0155642 0
0.379547 -0.0137414 0
0.373653 -0.0121509 0
0.298561 -0.009956 0
0.292797 -0.00880648 0
0.287611 -0.00782638 0
0.206485 -0.0053818 0
0.201844 -0.00479692 0
0.197664 -0.00430585 0
0.373653 -0.0121509 0
0.368274 -0.0106315 0
0.363525 -0.00911853 0
0.287611 -0.00782638 0
0.282879 -0.00690384 0
0.278678 -0.00599442 0
0.197664 -0.00430585 0
0.193847 -0.00385012 0
0.190426 -0.00341148 0
0.206485 -0.0053818 0
0.201844 -0.00479692 0
0.197664 -0.00430585 0
0.108985 -0.00153406 0
0.105959 -0.00138139 0
0.10319 -0.00126088 0
0 0 0
0 0 0
0 0 0
0.197664 -0.00430585 0
0.193847 -0.00385012 0
0.190426 -0.00341148 0
0.10319 -0.00126088 0
0.100625 -0.00113654 0
0.098305 -0.0010205 0
0 0 0
0 0 0
0 0 0
0.363525 -0.00911853 0
0.359442 -0.00737735 0
0.356176 -0.00538818 0
0.278678 -0.00599442 0
0.275012 -0.00491068 0
0.27207 -0.00364388 0
0.190426 -0.00341148 0
0.187388 -0.00288447 0
0.184917 -0.00224687 0
0.356176 -0.00538818 0
0.353425 -0.00295331 0
0.351562 0 0
0.27207 -0.00364388 0
0.269619 -0.00199983 0
0.268066 0 0
0.184917 -0.00224687 0
0.18287 -0.00135464 0
0.181641 0 0
0.190426 -0.00341148 0
0.187388 -0.00288447 0
0.184917 -0.00224687 0
0.098305 -0.0010205 0
0.0961791 -0.000860657 0
0.0944913 -0.000664664 0
0 0 0
0 0 0
0 0 0
0.184917 -0.00224687 0
0.18287 -0.00135464 0
0.181641 0 0
0.0944913 -0.000664664 0
0.0930337 -0.000355365 0
0.0922852 0 0
0 0 0
0 0 0
0 0 0
1.56697 -0.394495 0
1.53186 -0.406954 0
1.49676 -0.415624 0
1.505 -0.349552 0
1.47317 -0.361741 0
1.43971 -0.369704 0
1.43833 -0.311672 0
1.41145 -0.323448 0
1.38256 -0.331529 0
1.49676 -0.415624 0
1.45984 -0.417507 0
1.42342 -0.415528 0
1.43971 -0.369704 0
1.40645 -0.373118 0
1.37245 -0.372255 0
1.38256 -0.331529 0
1.35453 -0.335847 0
1.3252 -0.336268 0
1.43833 -0.311672 0
1.41145 -0.323448 0
1.38256 -0.331529 0
1.38345 -0.279571 0
1.35922 -0.288785 0
1.33352 -0.295149 0
1.31796 -0.246954 0
1.2948 -0.255035 0
1.27041 -0.260693 0
1.38256 -0.331529 0
1.35453 -0.335847 0
1.3252 -0.336268 0
1.33352 -0.295149 0
1.30771 -0.298359 0
1.2809 -0.298565 0
1.27041 -0.260693 0
1.24613 -0.263887 0
1.22113 -0.264544 0
1.42342 -0.415528 0
1.38883 -0.407656 0
1.35543 -0.396024 0
1.37245 -0.372255 0
1.34145 -0.367021 0
1.31071 -0.358559 0
1.3252 -0.336268 0
1.29873 -0.333166 0
1.27172 -0.326674 0
1.35543 -0.396024 0
1.32534 -0.380662 0
1.29694 -0.362819 0
1.31071 -0.358559 0
1.28382 -0.346825 0
1.25788 -0.332585 0
1.27172 -0.326674 0
1.24811 -0.317282 0
1.22456 -0.305247 0
1.3252 -0.336268 0
1.29873 -0.333166 0
1.27172 -0.326674 0
1.2809 -0.298565 0
1.25573 -0.295782 0
1.23017 -0.290326 0
1.22113 -0.264544 0
1.19767 -0.262786 0
1.1741 -0.258774 0
1.27172 -0.326674 0
1.24811 -0.317282 0
1.22456 -0.305247 0
1.23017 -0.290326 0
1.20712 -0.282512 0
1.18428 -0.272617 0
1.1741 -0.258774 0
1.15276 -0.252719 0
1.13178 -0.244803 0
1.31796 -0.246954 0
1.2948 -0.255035 0
1.27041 -0.260693 0
1.24682 -0.220083 0
1.22572 -0.227169 0
1.20357 -0.232182 0
1.17897 -0.193911 0
1.15907 -0.200279 0
1.13826 -0.204855 0
1.27041 -0.260693 0
1.24613 -0.263887 0
1.22113 -0.264544 0
1.20357 -0.232182 0
1.18167 -0.235034 0
1.15907 -0.235701 0
1.13826 -0.204855 0
1.11757 -0.20754 0
1.09626 -0.208334 0
1.17897 -0.193911 0
1.15907 -0.200279 0
1.13826 -0.204855 0
1.10927 -0.168423 0
1.09008 -0.173941 0
1.07003 -0.177905 0
1.03508 -0.143979 0
1.01649 -0.148917 0
0.997121 -0.15256 0
1.13826 -0.204855 0
1.11757 -0.20754 0
1.09626 -0.208334 0
1.07003 -0.177905 0
1.05013 -0.180305 0
1.02969 -0.1811 0
0.997121 -0.15256 0
0.977976 -0.154894 0
0.958344 -0.155863 0
1.22113 -0.264544 0
1.19767 -0.262786 0
1.1741 -0.258774 0
1.15907 -0.235701 0
1.1378 -0.234253 0
1.11627 -0.230822 0
1.09626 -0.208334 0
1.07596 -0.207291 0
1.05547 -0.204535 0
1.1741 -0.258774 0
1.15276 -0.252719 0
1.13178 -0.244803 0
1.11627 -0.230822 0
1.09653 -0.225609 0
1.07697 -0.218752 0
1.05547 -0.204535 0
1.03647 -0.20023 0
1.01768 -0.194496 0
1.09626 -0.208334 0
1.07596 -0.207291 0
1.05547 -0.204535 0
1.02969 -0.1811 0
1.01018 -0.180382 0
0.99051 -0.178187 0
0.958344 -0.155863 0
0.939562 -0.155531 0
0.920639 -0.153921 0
1.05547 -0.204535 0
1.03647 -0.20023 0
1.01768 -0.194496 0
0.99051 -0.178187 0
0.972191 -0.174684 0
0.954075 -0.16992 0
0.920639 -0.153921 0
0.902902 -0.151164 0
0.885354 -0.147297 0
1.29694 -0.362819 0
1.27334 -0.343058 0
1.25194 -0.321544 0
1.25788 -0.332585 0
1.23677 -0.31609 0
1.21713 -0.298456 0
1.22456 -0.305247 0
1.20499 -0.291377 0
1.18605 -0.275946 0
1.25194 -0.321544 0
1.23454 -0.299762 0
1.21943 -0.277628 0
1.21713 -0.298456 0
1.20126 -0.279892 0
1.18705 -0.260708 0
1.18605 -0.275946 0
1.17046 -0.259565 0
1.15587 -0.242453 0
1.22456 -0.305247 0
1.20499 -0.291377 0
1.18605 -0.275946 0
1.18428 -0.272617 0
1.16475 -0.261109 0
1.14596 -0.248217 0
1.13178 -0.244803 0
1.1136 -0.235355 0
1.09621 -0.224636 0
1.18605 -0.275946 0
1.17046 -0.259565 0
1.15587 -0.242453 0
1.14596 -0.248217 0
1.13023 -0.234491 0
1.11559 -0.220101 0
1.09621 -0.224636 0
1.08131 -0.213003 0
1.06739 -0.200635 0
1.21943 -0.277628 0
1.20825 -0.256116 0
1.19946 -0.234722 0
1.18705 -0.260708 0
1.17642 -0.241329 0
1.16754 -0.222311 0
1.15587 -0.242453 0
1.14447 -0.225316 0
1.13442 -0.208289 0
1.19946 -0.234722 0
1.19308 -0.214522 0
1.18858 -0.195441 0
1.16754 -0.222311 0
1.16076 -0.203877 0
1.15568 -0.186041 0
1.13442 -0.208289 0
1.12659 -0.191811 0
1.12015 -0.176015 0
1.15587 -0.242453 0
1.14447 -0.225316 0
1.13442 -0.208289 0
1.11559 -0.220101 0
1.10393 -0.205524 0
1.09355 -0.190849 0
1.06739 -0.200635 0
1.05593 -0.187911 0
1.04563 -0.175014 0
1.13442 -0.208289 0
1.12659 -0.191811 0
1.12015 -0.176015 0
1.09355 -0.190849 0
1.08523 -0.176458 0
1.07816 -0.162426 0
1.04563 -0.175014 0
1.03704 -0.162257 0
1.02961 -0.149764 0
1.13178 -0.244803 0
1.1136 -0.235355 0
1.09621 -0.224636 0
1.07697 -0.218752 0
1.0597 -0.210585 0
1.043 -0.201282 0
1.01768 -0.194496 0
1.00087 -0.187598 0
0.984653 -0.179692 0
1.09621 -0.224636 0
1.08131 -0.213003 0
1.06739 -0.200635 0
1.043 -0.201282 0
1.02843 -0.191202 0
1.01469 -0.180434 0
0.984653 -0.179692 0
0.970335 -0.171053 0
0.956834 -0.161779 0
1.01768 -0.194496 0
1.00087 -0.187598 0
0.984653 -0.179692 0
0.954075 -0.16992 0
0.937698 -0.164142 0
0.92186 -0.157446 0
0.885354 -0.147297 0
0.869315 -0.142522 0
0.853781 -0.136926 0
0.984653 -0.179692 0
0.970335 -0.171053 0
0.956834 -0.161779 0
0.92186 -0.157446 0
0.907682 -0.150089 0
0.894262 -0.142135 0
0.853781 -0.136926 0
0.839729 -0.130721 0
0.826401 -0.123965 0
1.06739 -0.200635 0
1.05593 -0.187911 0
1.04563 -0.175014 0
1.01469 -0.180434 0
1.00314 -0.169369 0
0.992644 -0.15813 0
0.956834 -0.161779 0
0.945283 -0.152171 0
0.934708 -0.142347 0
1.04563 -0.175014 0
1.03704 -0.162257 0
1.02961 -0.149764 0
0.992644 -0.15813 0
0.983729 -0.146996 0
0.975874 -0.135988 0
0.934708 -0.142347 0
0.925579 -0.132526 0
0.917439 -0.122776 0
0.956834 -0.161779 0
0.945283 -0.152171 0
0.934708 -0.142347 0
0.894262 -0.142135 0
0.882557 -0.133861 0
0.871776 -0.125356 0
0.826401 -0.123965 0
0.814624 -0.11689 0
0.803736 -0.109583 0
0.934708 -0.142347 0
0.925579 -0.132526 0
0.917439 -0.122776 0
0.871776 -0.125356 0
0.862319 -0.116834 0
0.853806 -0.108346 0
0.803736 -0.109583 0
0.79409 -0.102217 0
0.785363 -0.0948388 0
1.03508 -0.143979 0
1.01649 -0.148917 0
0.997121 -0.15256 0
0.960169 -0.121851 0
0.941936 -0.126024 0
0.923 -0.129115 0
0.884573 -0.0995591 0
0.866237 -0.103244 0
0.847242 -0.10602 0
0.997121 -0.15256 0
0.977976 -0.154894 0
0.958344 -0.155863 0
0.923 -0.129115 0
0.904281 -0.131106 0
0.885114 -0.131944 0
0.847242 -0.10602 0
0.828509 -0.10788 0
0.809381 -0.108776 0
0.884573 -0.0995591 0
0.866237 -0.103244 0
0.847242 -0.10602 0
0.806965 -0.077828 0
0.788553 -0.0809763 0
0.769497 -0.0833707 0
0.723737 -0.0565177 0
0.705432 -0.0591823 0
0.68642 -0.0612583 0
0.847242 -0.10602 0
0.828509 -0.10788 0
0.809381 -0.108776 0
0.769497 -0.0833707 0
0.750691 -0.0850116 0
0.731499 -0.0858636 0
0.68642 -0.0612583 0
0.667628 -0.0627429 0
0.648414 -0.0636069 0
0.958344 -0.155863 0
0.939562 -0.155531 0
0.920639 -0.153921 0
0.885114 -0.131944 0
0.866693 -0.131694 0
0.84815 -0.130367 0
0.809381 -0.108776 0
0.790959 -0.108765 0
0.772458 -0.107851 0
0.920639 -0.153921 0
0.902902 -0.151164 0
0.885354 -0.147297 0
0.84815 -0.130367 0
0.830667 -0.128086 0
0.813382 -0.124863 0
0.772458 -0.107851 0
0.754953 -0.106131 0
0.737678 -0.103613 0
0.809381 -0.108776 0
0.790959 -0.108765 0
0.772458 -0.107851 0
0.731499 -0.0858636 0
0.712952 -0.0859758 0
0.694326 -0.085343 0
0.648414 -0.0636069 0
0.629776 -0.0638872 0
0.611038 -0.0635782 0
0.772458 -0.107851 0
0.754953 -0.106131 0
0.737678 -0.103613 0
0.694326 -0.085343 0
0.676615 -0.0840526 0
0.65913 -0.0821034 0
0.611038 -0.0635782 0
0.593135 -0.0627493 0
0.575449 -0.0613975 0
0.723737 -0.0565177 0
0.705432 -0.0591823 0
0.68642 -0.0612583 0
0.626917 -0.0363194 0
0.609587 -0.0383459 0
0.591401 -0.0399483 0
0.491772 -0.0172642 0
0.477432 -0.018582 0
0.462034 -0.0196654 0
0.68642 -0.0612583 0
0.667628 -0.0627429 0
0.648414 -0.0636069 0
0.591401 -0.0399483 0
0.573286 -0.0411181 0
0.554628 -0.0418396 0
0.462034 -0.0196654 0
0.446525 -0.0205057 0
0.430332 -0.0210873 0
0.491772 -0.0172642 0
0.477432 -0.018582 0
0.462034 -0.0196654 0
0.288194 -0.00505636 0
0.280209 -0.00549098 0
0.271159 -0.00584739 0
0 0 0
0 0 0
0 0 0
0.462034 -0.0196654 0
0.446525 -0.0205057 0
0.430332 -0.0210873 0
0.271159 -0.00584739 0
0.261949 -0.00612663 0
0.251986 -0.00631083 0
0 0 0
0 0 0
0 0 0
0.648414 -0.0636069 0
0.629776 -0.0638872 0