# vtk DataFile Version 3.0
#This file was generated by the deal.II library on 2025/1/7 at 19:24:29
ASCII
DATASET UNSTRUCTURED_GRID

POINTS 34560 double
1.1 1.1 0
1.03125 1.09531 0
0.9625 1.09063 0
1.09375 1.03125 0
1.02539 1.02686 0
0.957031 1.02246 0
1.0875 0.9625 0
1.01953 0.958398 0
0.951563 0.954297 0
0.9625 1.09063 0
0.89375 1.08594 0
0.825 1.08125 0
0.957031 1.02246 0
0.888672 1.01807 0
0.820312 1.01367 0
0.951563 0.954297 0
0.883594 0.950195 0
0.815625 0.946094 0
1.0875 0.9625 0
1.01953 0.958398 0
0.951563 0.954297 0
1.08125 0.89375 0
1.01367 0.889941 0
0.946094 0.886133 0
1.075 0.825 0
1.00781 0.821484 0
0.940625 0.817969 0
0.951563 0.954297 0
0.883594 0.950195 0
0.815625 0.946094 0
0.946094 0.886133 0
0.878516 0.882324 0
0.810938 0.878516 0
0.940625 0.817969 0
0.873438 0.814453 0
0.80625 0.810937 0
0.825 1.08125 0
0.75625 1.07656 0
0.6875 1.07187 0
0.820312 1.01367 0
0.751953 1.00928 0
0.683594 1.00488 0
0.815625 0.946094 0
0.747656 0.941992 0
0.679688 0.937891 0
0.6875 1.07187 0
0.61875 1.06719 0
0.55 1.0625 0
0.683594 1.00488 0
0.615234 1.00049 0
0.546875 0.996094 0
0.679688 0.937891 0
0.611719 0.933789 0
0.54375 0.929688 0
0.815625 0.946094 0
0.747656 0.941992 0
0.679688 0.937891 0
0.810938 0.878516 0
0.743359 0.874707 0
0.675781 0.870898 0
0.80625 0.810937 0
0.739063 0.807422 0
0.671875 0.803906 0
0.679688 0.937891 0
0.611719 0.933789 0
0.54375 0.929688 0
0.675781 0.870898 0
0.608203 0.86709 0
0.540625 0.863281 0
0.671875 0.803906 0
0.604688 0.800391 0
0.5375 0.796875 0
1.075 0.825 0
1.00781 0.821484 0
0.940625 0.817969 0
1.06875 0.75625 0
1.00195 0.753027 0
0.935156 0.749805 0
1.0625 0.6875 0
0.996094 0.68457 0
0.929688 0.681641 0
0.940625 0.817969 0
0.873438 0.814453 0
0.80625 0.810937 0
0.935156 0.749805 0
0.868359 0.746582 0
0.801563 0.743359 0
0.929688 0.681641 0
0.863281 0.678711 0
0.796875 0.675781 0
1.0625 0.6875 0
0.996094 0.68457 0
0.929688 0.681641 0
1.05625 0.61875 0
0.990234 0.616113 0
0.924219 0.613477 0
1.05 0.55 0
0.984375 0.547656 0
0.91875 0.545313 0
0.929688 0.681641 0
0.863281 0.678711 0
0.796875 0.675781 0
0.924219 0.613477 0
0.858203 0.61084 0
0.792188 0.608203 0
0.91875 0.545313 0
0.853125 0.542969 0
0.7875 0.540625 0
0.80625 0.810937 0
0.739063 0.807422 0
0.671875 0.803906 0
0.801563 0.743359 0
0.734766 0.740137 0
0.667969 0.736914 0
0.796875 0.675781 0
0.730469 0.672852 0
0.664062 0.669922 0
0.671875 0.803906 0
0.604688 0.800391 0
0.5375 0.796875 0
0.667969 0.736914 0
0.601172 0.733691 0
0.534375 0.730469 0
0.664062 0.669922 0
0.597656 0.666992 0
0.53125 0.664062 0
0.796875 0.675781 0
0.730469 0.672852 0
0.664062 0.669922 0
0.792188 0.608203 0
0.726172 0.605566 0
0.660156 0.60293 0
0.7875 0.540625 0
0.721875 0.538281 0
0.65625 0.535937 0
0.664062 0.669922 0
0.597656 0.666992 0
0.53125 0.664062 0
0.660156 0.60293 0
0.594141 0.600293 0
0.528125 0.597656 0
0.65625 0.535937 0
0.590625 0.533594 0
0.525 0.53125 0
0.55 1.0625 0
0.48125 1.05781 0
0.4125 1.05313 0
0.546875 0.996094 0
0.478516 0.991699 0
0.410156 0.987305 0
0.54375 0.929688 0
0.475781 0.925586 0
0.407813 0.921484 0
0.4125 1.05313 0
0.34375 1.04844 0
0.275 1.04375 0
0.410156 0.987305 0
0.341797 0.98291 0
0.273438 0.978516 0
0.407813 0.921484 0
0.339844 0.917383 0
0.271875 0.913281 0
0.54375 0.929688 0
0.475781 0.925586 0
0.407813 0.921484 0
0.540625 0.863281 0
0.473047 0.859473 0
0.405469 0.855664 0
0.5375 0.796875 0
0.470313 0.793359 0
0.403125 0.789844 0
0.407813 0.921484 0
0.339844 0.917383 0
0.271875 0.913281 0
0.405469 0.855664 0
0.337891 0.851855 0
0.270313 0.848047 0
0.403125 0.789844 0
0.335938 0.786328 0
0.26875 0.782813 0
0.275 1.04375 0
0.20625 1.03906 0
0.1375 1.03437 0
0.273438 0.978516 0
0.205078 0.974121 0
0.136719 0.969727 0
0.271875 0.913281 0
0.203906 0.90918 0
0.135938 0.905078 0
0.1375 1.03437 0
0.06875 1.02969 0
0 1.025 0
0.136719 0.969727 0
0.0683594 0.965332 0
0 0.960937 0
0.135938 0.905078 0
0.0679688 0.900977 0
0 0.896875 0
0.271875 0.913281 0
0.203906 0.90918 0
0.135938 0.905078 0
0.270313 0.848047 0
0.202734 0.844238 0
0.135156 0.84043 0
0.26875 0.782813 0
0.201563 0.779297 0
0.134375 0.775781 0
0.135938 0.905078 0
0.0679688 0.900977 0
0 0.896875 0
0.135156 0.84043 0
0.0675781 0.836621 0
0 0.832812 0
0.134375 0.775781 0
0.0671875 0.772266 0
0 0.76875 0
0.5375 0.796875 0
0.470313 0.793359 0
0.403125 0.789844 0
0.534375 0.730469 0
0.467578 0.727246 0
0.400781 0.724023 0
0.53125 0.664062 0
0.464844 0.661133 0
0.398438 0.658203 0
0.403125 0.789844 0
0.335938 0.786328 0
0.26875 0.782813 0
0.400781 0.724023 0
0.333984 0.720801 0
0.267188 0.717578 0
0.398438 0.658203 0
0.332031 0.655273 0
0.265625 0.652344 0
0.53125 0.664062 0
0.464844 0.661133 0
0.398438 0.658203 0
0.528125 0.597656 0
0.462109 0.59502 0
0.396094 0.592383 0
0.525 0.53125 0
0.459375 0.528906 0
0.39375 0.526563 0
0.398438 0.658203 0
0.332031 0.655273 0
0.265625 0.652344 0
0.396094 0.592383 0
0.330078 0.589746 0
0.264062 0.587109 0
0.39375 0.526563 0
0.328125 0.524219 0
0.2625 0.521875 0
0.26875 0.782813 0
0.201563 0.779297 0
0.134375 0.775781 0
0.267188 0.717578 0
0.200391 0.714355 0
0.133594 0.711133 0
0.265625 0.652344 0
0.199219 0.649414 0
0.132812 0.646484 0
0.134375 0.775781 0
0.0671875 0.772266 0
0 0.76875 0
0.133594 0.711133 0
0.0667969 0.70791 0
0 0.704687 0
0.132812 0.646484 0
0.0664062 0.643555 0
0 0.640625 0
0.265625 0.652344 0
0.199219 0.649414 0
0.132812 0.646484 0
0.264062 0.587109 0
0.198047 0.584473 0
0.132031 0.581836 0
0.2625 0.521875 0
0.196875 0.519531 0
0.13125 0.517187 0
0.132812 0.646484 0
0.0664062 0.643555 0
0 0.640625 0
0.132031 0.581836 0
0.0660156 0.579199 0
0 0.576562 0
0.13125 0.517187 0
0.065625 0.514844 0
0 0.5125 0
1.05 0.55 0
0.984375 0.547656 0
0.91875 0.545313 0
1.04375 0.48125 0
0.978516 0.479199 0
0.913281 0.477148 0
1.0375 0.4125 0
0.972656 0.410742 0
0.907813 0.408984 0
0.91875 0.545313 0
0.853125 0.542969 0
0.7875 0.540625 0
0.913281 0.477148 0
0.848047 0.475098 0
0.782813 0.473047 0
0.907813 0.408984 0
0.842969 0.407227 0
0.778125 0.405469 0
1.0375 0.4125 0
0.972656 0.410742 0
0.907813 0.408984 0
1.03125 0.34375 0
0.966797 0.342285 0
0.902344 0.34082 0
1.025 0.275 0
0.960937 0.273828 0
0.896875 0.272656 0
0.907813 0.408984 0
0.842969 0.407227 0
0.778125 0.405469 0
0.902344 0.34082 0
0.837891 0.339355 0
0.773438 0.337891 0
0.896875 0.272656 0
0.832812 0.271484 0
0.76875 0.270313 0
0.7875 0.540625 0
0.721875 0.538281 0
0.65625 0.535937 0
0.782813 0.473047 0
0.717578 0.470996 0
0.652344 0.468945 0
0.778125 0.405469 0
0.713281 0.403711 0
0.648438 0.401953 0
0.65625 0.535937 0
0.590625 0.533594 0
0.525 0.53125 0
0.652344 0.468945 0
0.587109 0.466895 0
0.521875 0.464844 0
0.648438 0.401953 0
0.583594 0.400195 0
0.51875 0.398438 0
0.778125 0.405469 0
0.713281 0.403711 0
0.648438 0.401953 0
0.773438 0.337891 0
0.708984 0.336426 0
0.644531 0.334961 0
0.76875 0.270313 0
0.704687 0.269141 0
0.640625 0.267969 0
0.648438 0.401953 0
0.583594 0.400195 0
0.51875 0.398438 0
0.644531 0.334961 0
0.580078 0.333496 0
0.515625 0.332031 0
0.640625 0.267969 0
0.576562 0.266797 0
0.5125 0.265625 0
1.025 0.275 0
0.960937 0.273828 0
0.896875 0.272656 0
1.01875 0.20625 0
0.955078 0.205371 0
0.891406 0.204492 0
1.0125 0.1375 0
0.949219 0.136914 0
0.885937 0.136328 0
0.896875 0.272656 0
0.832812 0.271484 0
0.76875 0.270313 0
0.891406 0.204492 0
0.827734 0.203613 0
0.764062 0.202734 0
0.885937 0.136328 0
0.822656 0.135742 0
0.759375 0.135156 0
1.0125 0.1375 0
0.949219 0.136914 0
0.885937 0.136328 0
1.00625 0.06875 0
0.943359 0.068457 0
0.880469 0.0681641 0
1 0 0
0.9375 0 0
0.875 0 0
0.885937 0.136328 0
0.822656 0.135742 0
0.759375 0.135156 0
0.880469 0.0681641 0
0.817578 0.0678711 0
0.754687 0.0675781 0
0.875 0 0
0.8125 0 0
0.75 0 0
0.76875 0.270313 0
0.704687 0.269141 0
0.640625 0.267969 0
0.764062 0.202734 0
0.700391 0.201855 0
0.636719 0.200977 0
0.759375 0.135156 0
0.696094 0.13457 0
0.632812 0.133984 0
0.640625 0.267969 0
0.576562 0.266797 0
0.5125 0.265625 0
0.636719 0.200977 0
0.573047 0.200098 0
0.509375 0.199219 0
0.632812 0.133984 0
0.569531 0.133398 0
0.50625 0.132812 0
0.759375 0.135156 0
0.696094 0.13457 0
0.632812 0.133984 0
0.754687 0.0675781 0
0.691797 0.0672852 0
0.628906 0.0669922 0
0.75 0 0
0.6875 0 0
0.625 0 0
0.632812 0.133984 0
0.569531 0.133398 0
0.50625 0.132812 0
0.628906 0.0669922 0
0.566016 0.0666992 0
0.503125 0.0664062 0
0.625 0 0
0.5625 0 0
0.5 0 0
0.525 0.53125 0
0.459375 0.528906 0
0.39375 0.526563 0
0.521875 0.464844 0
0.456641 0.462793 0
0.391406 0.460742 0
0.51875 0.398438 0
0.453906 0.39668 0
0.389063 0.394922 0
0.39375 0.526563 0
0.328125 0.524219 0
0.2625 0.521875 0
0.391406 0.460742 0
0.326172 0.458691 0
0.260938 0.456641 0
0.389063 0.394922 0
0.324219 0.393164 0
0.259375 0.391406 0
0.51875 0.398438 0
0.453906 0.39668 0
0.389063 0.394922 0
0.515625 0.332031 0
0.451172 0.330566 0
0.386719 0.329102 0
0.5125 0.265625 0
0.448437 0.264453 0
0.384375 0.263281 0
0.389063 0.394922 0
0.324219 0.393164 0
0.259375 0.391406 0
0.386719 0.329102 0
0.322266 0.327637 0
0.257812 0.326172 0
0.384375 0.263281 0
0.320312 0.262109 0
0.25625 0.260937 0
0.2625 0.521875 0
0.196875 0.519531 0
0.13125 0.517187 0
0.260938 0.456641 0
0.195703 0.45459 0
0.130469 0.452539 0
0.259375 0.391406 0
0.194531 0.389648 0
0.129688 0.387891 0
0.13125 0.517187 0
0.065625 0.514844 0
0 0.5125 0
0.130469 0.452539 0
0.0652344 0.450488 0
0 0.448437 0
0.129688 0.387891 0
0.0648438 0.386133 0
0 0.384375 0
0.259375 0.391406 0
0.194531 0.389648 0
0.129688 0.387891 0
0.257812 0.326172 0
0.193359 0.324707 0
0.128906 0.323242 0
0.25625 0.260937 0
0.192187 0.259766 0
0.128125 0.258594 0
0.129688 0.387891 0
0.0648438 0.386133 0
0 0.384375 0
0.128906 0.323242 0
0.0644531 0.321777 0
0 0.320312 0
0.128125 0.258594 0
0.0640625 0.257422 0
0 0.25625 0
0.5125 0.265625 0
0.448437 0.264453 0
0.384375 0.263281 0
0.509375 0.199219 0
0.445703 0.19834 0
0.382031 0.197461 0
0.50625 0.132812 0
0.442969 0.132227 0
0.379688 0.131641 0
0.384375 0.263281 0
0.320312 0.262109 0
0.25625 0.260937 0
0.382031 0.197461 0
0.318359 0.196582 0
0.254687 0.195703 0
[...]
POINT_DATA 34560
VECTORS v double
1.2445 -0.32539 0
1.22969 -0.294875 0
1.21668 -0.26689 0
1.21208 -0.307738 0
1.19515 -0.280516 0
1.18067 -0.254565 0
1.1755 -0.29002 0
1.15777 -0.265092 0
1.14131 -0.241044 0
1.21668 -0.26689 0
1.20518 -0.24001 0
1.1951 -0.215187 0
1.18067 -0.254565 0
1.16709 -0.229832 0
1.15582 -0.206549 0
1.14131 -0.241044 0
1.12671 -0.218186 0
1.11352 -0.19631 0
1.1755 -0.29002 0
1.15777 -0.265092 0
1.14131 -0.241044 0
1.13439 -0.268602 0
1.11489 -0.24619 0
1.09709 -0.224567 0
1.08634 -0.247807 0
1.06587 -0.227749 0
1.04716 -0.208273 0
1.14131 -0.241044 0
1.12671 -0.218186 0
1.11352 -0.19631 0
1.09709 -0.224567 0
1.08091 -0.203802 0
1.06642 -0.183881 0
1.04716 -0.208273 0
1.03003 -0.189416 0
1.01469 -0.171238 0
1.1951 -0.215187 0
1.18598 -0.191546 0
1.17801 -0.169523 0
1.15582 -0.206549 0
1.14486 -0.18435 0
1.13597 -0.163492 0
1.11352 -0.19631 0
1.10151 -0.175559 0
1.09098 -0.155784 0
1.17801 -0.169523 0
1.17046 -0.148619 0
1.16382 -0.128989 0
1.13597 -0.163492 0
1.12684 -0.14355 0
1.11948 -0.124801 0
1.09098 -0.155784 0
1.08086 -0.137002 0
1.07216 -0.119124 0
1.11352 -0.19631 0
1.10151 -0.175559 0
1.09098 -0.155784 0
1.06642 -0.183881 0
1.05311 -0.164783 0
1.0414 -0.146573 0
1.01469 -0.171238 0
1.00049 -0.153707 0
0.988003 -0.136922 0
1.09098 -0.155784 0
1.08086 -0.137002 0
1.07216 -0.119124 0
1.0414 -0.146573 0
1.0303 -0.129135 0
1.02066 -0.112469 0
0.988003 -0.136922 0
0.97615 -0.120754 0
0.965873 -0.105272 0
1.08634 -0.247807 0
1.06587 -0.227749 0
1.04716 -0.208273 0
1.03266 -0.226123 0
1.01168 -0.208314 0
0.992361 -0.190885 0
0.974942 -0.204893 0
0.953543 -0.189078 0
0.933706 -0.173525 0
1.04716 -0.208273 0
1.03003 -0.189416 0
1.01469 -0.171238 0
0.992361 -0.190885 0
0.974619 -0.17392 0
0.958564 -0.157487 0
0.933706 -0.173525 0
0.915424 -0.158336 0
0.89877 -0.143561 0
0.974942 -0.204893 0
0.953543 -0.189078 0
0.933706 -0.173525 0
0.912339 -0.181976 0
0.89057 -0.168228 0
0.870367 -0.154663 0
0.844968 -0.15999 0
0.823132 -0.14814 0
0.802805 -0.136391 0
0.933706 -0.173525 0
0.915424 -0.158336 0
0.89877 -0.143561 0
0.870367 -0.154663 0
0.851684 -0.141355 0
0.834626 -0.128362 0
0.802805 -0.136391 0
0.783951 -0.124814 0
0.766679 -0.113472 0
1.01469 -0.171238 0
1.00049 -0.153707 0
0.988003 -0.136922 0
0.958564 -0.157487 0
0.943724 -0.141576 0
0.930531 -0.126274 0
0.89877 -0.143561 0
0.883384 -0.129212 0
0.869615 -0.115364 0
0.988003 -0.136922 0
0.97615 -0.120754 0
0.965873 -0.105272 0
0.930531 -0.126274 0
0.91813 -0.111496 0
0.907272 -0.097296 0
0.869615 -0.115364 0
0.856759 -0.101954 0
0.845435 -0.0890291 0
0.89877 -0.143561 0
0.883384 -0.129212 0
0.869615 -0.115364 0
0.834626 -0.128362 0
0.818844 -0.115685 0
0.804678 -0.103411 0
0.766679 -0.113472 0
0.75067 -0.102371 0
0.736252 -0.0915932 0
0.869615 -0.115364 0
0.856759 -0.101954 0
0.845435 -0.0890291 0
0.804678 -0.103411 0
0.791497 -0.0914758 0
0.779858 -0.0799432 0
0.736252 -0.0915932 0
0.722871 -0.0810886 0
0.711027 -0.0709148 0
1.16382 -0.128989 0
1.15752 -0.110309 0
1.15196 -0.0925916 0
1.11948 -0.124801 0
1.11191 -0.106831 0
1.10586 -0.0897917 0
1.07216 -0.119124 0
1.06379 -0.102052 0
1.05677 -0.0857569 0
1.15196 -0.0925916 0
1.14647 -0.0756584 0
1.14157 -0.0594785 0
1.10586 -0.0897917 0
1.0994 -0.0733888 0
1.09418 -0.0577651 0
1.05677 -0.0857569 0
1.0497 -0.0701271 0
1.04383 -0.0551449 0
1.07216 -0.119124 0
1.06379 -0.102052 0
1.05677 -0.0857569 0
1.02066 -0.112469 0
1.01159 -0.0964671 0
1.00386 -0.0811799 0
0.965873 -0.105272 0
0.95619 -0.0903578 0
0.947946 -0.0760796 0
1.05677 -0.0857569 0
1.0497 -0.0701271 0
1.04383 -0.0551449 0
1.00386 -0.0811799 0
0.996357 -0.0664673 0
0.990029 -0.0522989 0
0.947946 -0.0760796 0
0.940032 -0.0622877 0
0.933387 -0.0490058 0
1.14157 -0.0594785 0
1.13688 -0.043902 0
1.13271 -0.0288386 0
1.09418 -0.0577651 0
1.08888 -0.0426697 0
1.08462 -0.0280857 0
1.04383 -0.0551449 0
1.03817 -0.0406908 0
1.03359 -0.0267336 0
1.13271 -0.0288386 0
1.12863 -0.0142176 0
1.125 0 0
1.08462 -0.0280857 0
1.08021 -0.0138579 0
1.07666 0 0
1.03359 -0.0267336 0
1.02902 -0.0131787 0
1.02539 0 0
1.04383 -0.0551449 0
1.03817 -0.0406908 0
1.03359 -0.0267336 0
0.990029 -0.0522989 0
0.984159 -0.0386043 0
0.979357 -0.0254005 0
0.933387 -0.0490058 0
0.92726 -0.0361643 0
0.922276 -0.0237789 0
1.03359 -0.0267336 0
1.02902 -0.0131787 0
1.02539 0 0
0.979357 -0.0254005 0
0.974806 -0.0125658 0
0.971191 0 0
0.922276 -0.0237789 0
0.917656 -0.0117368 0
0.914062 0 0
0.965873 -0.105272 0
0.95619 -0.0903578 0
0.947946 -0.0760796 0
0.907272 -0.097296 0
0.897144 -0.0835824 0
0.888448 -0.0704153 0
0.845435 -0.0890291 0
0.834955 -0.0765256 0
0.825907 -0.0644974 0
0.947946 -0.0760796 0
0.940032 -0.0622877 0
0.933387 -0.0490058 0
0.888448 -0.0704153 0
0.880257 -0.0576782 0
0.873358 -0.0453912 0
0.825907 -0.0644974 0
0.817511 -0.0528493 0
0.810419 -0.0415939 0
0.845435 -0.0890291 0
0.834955 -0.0765256 0
0.825907 -0.0644974 0
0.779858 -0.0799432 0
0.769137 -0.0687514 0
0.759863 -0.0579649 0
0.711027 -0.0709148 0
0.700161 -0.061024 0
0.690746 -0.0514759 0
0.825907 -0.0644974 0
0.817511 -0.0528493 0
0.810419 -0.0415939 0
0.759863 -0.0579649 0
0.751348 -0.0474972 0
0.744162 -0.0373695 0
0.690746 -0.0514759 0
0.682184 -0.0422033 0
0.674969 -0.0332232 0
0.933387 -0.0490058 0
0.92726 -0.0361643 0
0.922276 -0.0237789 0
0.873358 -0.0453912 0
0.867105 -0.0334977 0
0.862032 -0.0220191 0
0.810419 -0.0415939 0
0.804079 -0.0306953 0
0.798934 -0.0201773 0
0.922276 -0.0237789 0
0.917656 -0.0117368 0
0.914062 0 0
0.862032 -0.0220191 0
0.857484 -0.0108647 0
0.854004 0 0
0.798934 -0.0201773 0
0.794428 -0.00996303 0
0.791016 0 0
0.810419 -0.0415939 0
0.804079 -0.0306953 0
0.798934 -0.0201773 0
0.744162 -0.0373695 0
0.737815 -0.0275502 0
0.732695 -0.0180789 0
0.674969 -0.0332232 0
0.668656 -0.0245122 0
0.663584 -0.0161072 0
0.798934 -0.0201773 0
0.794428 -0.00996303 0
0.791016 0 0
0.732695 -0.0180789 0
0.728332 -0.00890155 0
0.725098 0 0
0.663584 -0.0161072 0
0.659346 -0.00795949 0
0.65625 0 0
0.844968 -0.15999 0
0.823132 -0.14814 0
0.802805 -0.136391 0
0.773441 -0.137076 0
0.751574 -0.127032 0
0.731187 -0.117051 0
0.69779 -0.114944 0
0.676 -0.106612 0
0.655656 -0.0983177 0
0.802805 -0.136391 0
0.783951 -0.124814 0
0.766679 -0.113472 0
0.731187 -0.117051 0
0.712209 -0.107192 0
0.6948 -0.0975193 0
0.655656 -0.0983177 0
0.636675 -0.0901052 0
0.619243 -0.0820381 0
0.69779 -0.114944 0
0.676 -0.106612 0
0.655656 -0.0983177 0
0.618128 -0.0918228 0
0.596448 -0.0851678 0
0.576216 -0.0785441 0
0.533465 -0.0696231 0
0.512132 -0.0645761 0
0.492221 -0.0595599 0
0.655656 -0.0983177 0
0.636675 -0.0901052 0
0.619243 -0.0820381 0
0.576216 -0.0785441 0
0.557286 -0.0719762 0
0.539905 -0.0655298 0
0.492221 -0.0595599 0
0.473556 -0.0545796 0
0.456423 -0.0497041 0
0.766679 -0.113472 0
0.75067 -0.102371 0
0.736252 -0.0915932 0
0.6948 -0.0975193 0
0.67864 -0.0880327 0
0.664065 -0.078809 0
0.619243 -0.0820381 0
0.603045 -0.0741076 0
0.588421 -0.0663916 0
0.736252 -0.0915932 0
0.722871 -0.0810886 0
0.711027 -0.0709148 0
0.664065 -0.078809 0
0.650565 -0.0697992 0
0.638605 -0.0610613 0
0.588421 -0.0663916 0
0.574899 -0.058843 0
0.562919 -0.0515172 0
0.619243 -0.0820381 0
0.603045 -0.0741076 0
0.588421 -0.0663916 0
0.539905 -0.0655298 0
0.523734 -0.0591843 0
0.50914 -0.0530161 0
0.456423 -0.0497041 0
0.44047 -0.0449004 0
0.426078 -0.040243 0
0.588421 -0.0663916 0
0.574899 -0.058843 0
0.562919 -0.0515172 0
0.50914 -0.0530161 0
0.495667 -0.0469753 0
0.483741 -0.0411163 0
0.426078 -0.040243 0
0.412814 -0.0356806 0
0.401086 -0.0312654 0
0.533465 -0.0696231 0
0.512132 -0.0645761 0
0.492221 -0.0595599 0
0.442675 -0.0468535 0
0.421865 -0.043349 0
0.402519 -0.0398917 0
0.336142 -0.0254556 0
0.317333 -0.02353 0
0.299929 -0.0216524 0
0.492221 -0.0595599 0
0.473556 -0.0545796 0
0.456423 -0.0497041 0
0.402519 -0.0398917 0
0.384366 -0.0364652 0
0.367765 -0.0331384 0
0.299929 -0.0216524 0
0.283637 -0.0197825 0
0.268814 -0.0179896 0
0.336142 -0.0254556 0
0.317333 -0.02353 0
0.299929 -0.0216524 0
0.196258 -0.00779137 0
0.183072 -0.00713596 0
0.171108 -0.00653251 0
0 0 0
0 0 0
0 0 0
0.299929 -0.0216524 0
0.283637 -0.0197825 0
0.268814 -0.0179896 0
0.171108 -0.00653251 0
0.159866 -0.00591279 0
0.149831 -0.00535067 0
0 0 0
0 0 0
0 0 0
0.456423 -0.0497041 0
0.44047 -0.0449004 0
0.426078 -0.040243 0
0.367765 -0.0331384 0
0.352308 -0.0298661 0
0.338412 -0.0267166 0
0.268814 -0.0179896 0
0.255048 -0.0162181 0
0.242726 -0.0145327 0
0.426078 -0.040243 0
0.412814 -0.0356806 0
0.401086 -0.0312654 0
0.338412 -0.0267166 0
0.325626 -0.0236372 0
0.314357 -0.0206764 0
0.242726 -0.0145327 0
0.231425 -0.0128832 0
0.221501 -0.0113129 0
0.268814 -0.0179896 0
0.255048 -0.0162181 0
0.242726 -0.0145327 0
0.149831 -0.00535067 0
0.14048 -0.00477799 0
0.132254 -0.00425774 0
0 0 0
0 0 0
0 0 0
0.242726 -0.0145327 0
0.231425 -0.0128832 0
0.221501 -0.0113129 0
0.132254 -0.00425774 0
0.124686 -0.0037373 0
0.118138 -0.00326069 0
0 0 0
0 0 0
0 0 0
0.711027 -0.0709148 0
0.700161 -0.061024 0
0.690746 -0.0514759 0
0.638605 -0.0610613 0
0.627675 -0.052548 0
0.61821 -0.0443171 0
0.562919 -0.0515172 0
0.552008 -0.044369 0
0.542568 -0.0374522 0
0.690746 -0.0514759 0
0.682184 -0.0422033 0
0.674969 -0.0332232 0
0.61821 -0.0443171 0
0.609673 -0.0363101 0
0.602501 -0.0285502 0
0.542568 -0.0374522 0
0.534123 -0.0307186 0
0.527057 -0.0241883 0
0.562919 -0.0515172 0
0.552008 -0.044369 0
0.542568 -0.0374522 0
0.483741 -0.0411163 0
0.472917 -0.0353929 0
0.463577 -0.0298536 0
0.401086 -0.0312654 0
0.390476 -0.0269518 0
0.381345 -0.0227801 0
0.542568 -0.0374522 0
0.534123 -0.0307186 0
0.527057 -0.0241883 0
0.463577 -0.0298536 0
0.455288 -0.0244519 0
0.448393 -0.0192083 0
0.381345 -0.0227801 0
0.373306 -0.0187074 0
0.366667 -0.014751 0
0.674969 -0.0332232 0
0.668656 -0.0245122 0
0.663584 -0.0161072 0
0.602501 -0.0285502 0
0.596293 -0.0210154 0
0.59135 -0.0137499 0
0.527057 -0.0241883 0
0.521004 -0.0178429 0
0.516226 -0.0117196 0
0.663584 -0.0161072 0
0.659346 -0.00795949 0
0.65625 0 0
0.59135 -0.0137499 0
0.587327 -0.00673933 0
0.584473 0 0
0.516226 -0.0117196 0
0.512414 -0.00580222 0
0.509766 0 0
0.527057 -0.0241883 0
0.521004 -0.0178429 0
0.516226 -0.0117196 0
0.448393 -0.0192083 0
0.442553 -0.0141055 0
0.438002 -0.00918564 0
0.366667 -0.014751 0
0.361114 -0.0108934 0
0.35685 -0.00716029 0
0.516226 -0.0117196 0
0.512414 -0.00580222 0
0.509766 0 0
0.438002 -0.00918564 0
0.434473 -0.00446317 0
0.432129 0 0
0.35685 -0.00716029 0
0.353627 -0.00356814 0
0.351562 0 0
0.401086 -0.0312654 0
0.390476 -0.0269518 0
0.381345 -0.0227801 0
0.314357 -0.0206764 0
0.304196 -0.0177906 0
0.295487 -0.0150099 0
0.221501 -0.0113129 0
0.212584 -0.00978234 0
0.204962 -0.0083168 0
0.381345 -0.0227801 0
0.373306 -0.0187074 0
0.366667 -0.014751 0
0.295487 -0.0150099 0
0.287872 -0.0122944 0
0.281631 -0.0096563 0
0.204962 -0.0083168 0
0.19833 -0.00688472 0
0.19292 -0.00549723 0
0.221501 -0.0113129 0
0.212584 -0.00978234 0
0.204962 -0.0083168 0
0.118138 -0.00326069 0
0.112234 -0.00279096 0
0.107255 -0.00235295 0
0 0 0
0 0 0
0 0 0
0.204962 -0.0083168 0
0.19833 -0.00688472 0
0.19292 -0.00549723 0
0.107255 -0.00235295 0
0.102897 -0.00191791 0
0.0993718 -0.00150699 0
0 0 0
0 0 0
0 0 0
0.366667 -0.014751 0
0.361114 -0.0108934 0
0.35685 -0.00716029 0
0.281631 -0.0096563 0
0.276482 -0.00707268 0
0.272607 -0.00456137 0
0.19292 -0.00549723 0
0.188513 -0.00412768 0
0.18526 -0.00276754 0
0.35685 -0.00716029 0
0.353627 -0.00356814 0
0.351562 0 0
0.272607 -0.00456137 0
0.269766 -0.00215083 0
0.268066 0 0
0.18526 -0.00276754 0
0.182947 -0.00143528 0
0.181641 0 0
0.19292 -0.00549723 0
0.188513 -0.00412768 0
0.18526 -0.00276754 0
0.0993718 -0.00150699 0
0.0964912 -0.00110419 0
0.0944413 -0.000696696 0
0 0 0
0 0 0
0 0 0
0.18526 -0.00276754 0
0.182947 -0.00143528 0
0.181641 0 0
0.0944413 -0.000696696 0
0.0929825 -0.0002697 0
0.0922852 0 0
0 0 0
0 0 0
0 0 0
1.72897 -0.541997 0
1.68092 -0.552434 0
1.64323 -0.55916 0
1.67615 -0.488735 0
1.63518 -0.499657 0
1.59383 -0.505622 0
1.6157 -0.440102 0
1.57901 -0.450848 0
1.54013 -0.457774 0
1.64323 -0.55916 0
1.59511 -0.559856 0
1.55656 -0.55759 0
1.59383 -0.505622 0
1.55265 -0.508424 0
1.51185 -0.506494 0
1.54013 -0.457774 0
1.50338 -0.461565 0
1.46523 -0.461465 0
1.6157 -0.440102 0
1.57901 -0.450848 0
1.54013 -0.457774 0
1.56595 -0.39732 0
1.53112 -0.406343 0
1.49628 -0.412687 0
1.50825 -0.353868 0
1.47504 -0.362416 0
1.44068 -0.36831 0
1.54013 -0.457774 0
1.50338 -0.461565 0
1.46523 -0.461465 0
1.49628 -0.412687 0
1.46129 -0.415845 0
1.42629 -0.416121 0
1.44068 -0.36831 0
1.40697 -0.371687 0
1.37283 -0.372441 0
1.55656 -0.55759 0
1.51266 -0.549426 0
1.47623 -0.537888 0
1.51185 -0.506494 0
1.47316 -0.501168 0
1.43603 -0.492244 0
1.46523 -0.461465 0
1.4311 -0.458464 0
1.39606 -0.451837 0
1.47623 -0.537888 0
1.43816 -0.522866 0
1.40569 -0.505411 0
1.43603 -0.492244 0
1.40149 -0.480709 0
1.36896 -0.466302 0
1.39606 -0.451837 0
1.36529 -0.44287 0
1.33417 -0.430869 0
1.46523 -0.461465 0
1.4311 -0.458464 0
1.39606 -0.451837 0
1.42629 -0.416121 0
1.39286 -0.413396 0
1.35981 -0.408057 0
1.37283 -0.372441 0
1.34043 -0.370784 0
1.30823 -0.366814 0
1.39606 -0.451837 0
1.36529 -0.44287 0
1.33417 -0.430869 0
1.35981 -0.408057 0
1.32873 -0.400294 0
1.29848 -0.39037 0
1.30823 -0.366814 0
1.27816 -0.36083 0
1.24879 -0.352864 0
1.50825 -0.353868 0
1.47504 -0.362416 0
1.44068 -0.36831 0
1.44011 -0.315088 0
1.40847 -0.323302 0
1.3761 -0.329226 0
1.3746 -0.27814 0
1.34459 -0.286054 0
1.31375 -0.2919 0
1.44068 -0.36831 0
1.40697 -0.371687 0
1.37283 -0.372441 0
1.3761 -0.329226 0
1.34433 -0.332766 0
1.31227 -0.333995 0
1.31375 -0.2919 0
1.28348 -0.295573 0
1.25279 -0.297163 0
1.3746 -0.27814 0
1.34459 -0.286054 0
1.31375 -0.2919 0
1.30915 -0.241451 0
1.28005 -0.248755 0
1.25 -0.254196 0
1.23687 -0.206351 0
1.20868 -0.213137 0
1.1795 -0.21833 0
1.31375 -0.2919 0
1.28348 -0.295573 0
1.25279 -0.297163 0
1.25 -0.254196 0
1.22044 -0.257747 0
1.19037 -0.259485 0
1.1795 -0.21833 0
1.15083 -0.221902 0
1.12158 -0.223898 0
1.37283 -0.372441 0
1.34043 -0.370784 0
1.30823 -0.366814 0
1.31227 -0.333995 0
1.28184 -0.333009 0
1.2515 -0.329935 0
1.25279 -0.297163 0
1.22336 -0.296725 0
1.19397 -0.294429 0
1.30823 -0.366814 0
1.27816 -0.36083 0
1.24879 -0.352864 0
1.2515 -0.329935 0
1.22301 -0.324995 0
1.19501 -0.318238 0
1.19397 -0.294429 0
1.16608 -0.290429 0
1.1386 -0.284808 0
1.25279 -0.297163 0
1.22336 -0.296725 0
1.19397 -0.294429 0
1.19037 -0.259485 0
1.16149 -0.259503 0
1.13256 -0.25788 0
1.12158 -0.223898 0
1.09347 -0.224396 0
1.06524 -0.223455 0
1.19397 -0.294429 0
1.16608 -0.290429 0
1.1386 -0.284808 0
1.13256 -0.25788 0
1.10507 -0.254807 0
1.07793 -0.250286 0
1.06524 -0.223455 0
1.03831 -0.22122 0
1.01165 -0.217692 0
1.40569 -0.505411 0
1.3742 -0.485602 0
1.34793 -0.463822 0
1.36896 -0.466302 0
1.34019 -0.449844 0
1.31393 -0.431785 0
1.33417 -0.430869 0
1.30783 -0.417255 0
1.2817 -0.401453 0
1.34793 -0.463822 0
1.32264 -0.441205 0
1.30188 -0.417978 0
1.31393 -0.431785 0
1.29049 -0.412635 0
1.26975 -0.392371 0
1.2817 -0.401453 0
1.25936 -0.384589 0
1.23765 -0.366292 0
1.33417 -0.430869 0
1.30783 -0.417255 0
1.2817 -0.401453 0
1.29848 -0.39037 0
1.27115 -0.378645 0
1.24497 -0.365289 0
1.24879 -0.352864 0
1.22223 -0.343286 0
1.19691 -0.33224 0
1.2817 -0.401453 0
1.25936 -0.384589 0
1.23765 -0.366292 0
1.24497 -0.365289 0
1.22151 -0.350841 0
1.19948 -0.335328 0
1.19691 -0.33224 0
1.17395 -0.320057 0
1.15243 -0.306796 0
1.30188 -0.417978 0
1.28327 -0.394765 0
1.26832 -0.370972 0
1.26975 -0.392371 0
1.25195 -0.371551 0
1.23666 -0.350337 0
1.23765 -0.366292 0
1.2196 -0.347671 0
1.20269 -0.328339 0
1.26832 -0.370972 0
1.25504 -0.347964 0
1.2445 -0.32539 0
1.23666 -0.350337 0
1.22319 -0.329102 0
1.21208 -0.307738 0
1.20269 -0.328339 0
1.18843 -0.309194 0
1.1755 -0.29002 0
1.23765 -0.366292 0
1.2196 -0.347671 0
1.20269 -0.328339 0
1.19948 -0.335328 0
1.18048 -0.319239 0
1.16314 -0.302554 0
1.15243 -0.306796 0
1.13345 -0.292784 0
1.11607 -0.278126 0
1.20269 -0.328339 0
1.18843 -0.309194 0
1.1755 -0.29002 0
1.16314 -0.302554 0
1.14794 -0.285704 0
1.13439 -0.268602 0
1.11607 -0.278126 0
1.10039 -0.263105 0
1.08634 -0.247807 0
1.24879 -0.352864 0
1.22223 -0.343286 0
1.19691 -0.33224 0
1.19501 -0.318238 0
1.16941 -0.309998 0
1.14467 -0.300389 0
1.1386 -0.284808 0
1.11317 -0.277851 0
1.08856 -0.269666 0
1.19691 -0.33224 0
1.17395 -0.320057 0
1.15243 -0.306796 0
1.14467 -0.300389 0
1.12201 -0.289766 0
1.10047 -0.278095 0
1.08856 -0.269666 0
1.06584 -0.260537 0
1.04423 -0.250473 0
1.1386 -0.284808 0
1.11317 -0.277851 0
1.08856 -0.269666 0
1.07793 -0.250286 0
1.05268 -0.24459 0
1.02818 -0.237755 0
1.01165 -0.217692 0
0.986662 -0.213096 0
0.962317 -0.207468 0
1.08856 -0.269666 0
1.06584 -0.260537 0
1.04423 -0.250473 0
1.02818 -0.237755 0
1.0054 -0.230055 0
0.983646 -0.221473 0
0.962317 -0.207468 0
0.939522 -0.201045 0
0.917665 -0.193808 0
1.15243 -0.306796 0
1.13345 -0.292784 0
1.11607 -0.278126 0
1.10047 -0.278095 0
1.08125 -0.265784 0
1.06343 -0.252886 0
1.04423 -0.250473 0
1.02475 -0.239795 0
1.00661 -0.228536 0
1.11607 -0.278126 0
1.10039 -0.263105 0
1.08634 -0.247807 0
1.06343 -0.252886 0
1.04729 -0.239694 0
1.03266 -0.226123 0
1.00661 -0.228536 0
0.990063 -0.216908 0
0.974942 -0.204893 0
1.04423 -0.250473 0
1.02475 -0.239795 0
1.00661 -0.228536 0
0.983646 -0.221473 0
0.963796 -0.212297 0
0.945198 -0.202546 0
0.917665 -0.193808 0
0.897547 -0.186015 0
0.878629 -0.177691 0
1.00661 -0.228536 0
0.990063 -0.216908 0
0.974942 -0.204893 0
0.945198 -0.202546 0
0.928083 -0.192441 0
0.912339 -0.181976 0
0.878629 -0.177691 0
0.86113 -0.169024 0
0.844968 -0.15999 0
1.23687 -0.206351 0
1.20868 -0.213137 0
1.1795 -0.21833 0
1.16282 -0.174521 0
1.13548 -0.180562 0
1.10711 -0.185237 0
1.08812 -0.142992 0
1.06116 -0.148416 0
1.0331 -0.152666 0
1.1795 -0.21833 0
1.15083 -0.221902 0
1.12158 -0.223898 0
1.10711 -0.185237 0
1.0792 -0.188494 0
1.05064 -0.19038 0
1.0331 -0.152666 0
1.00548 -0.155695 0
0.977171 -0.157553 0
1.08812 -0.142992 0
1.06116 -0.148416 0
1.0331 -0.152666 0
1.01047 -0.112254 0
0.983879 -0.116968 0
0.956117 -0.120692 0
0.926323 -0.0825832 0
0.900189 -0.0865555 0
0.872783 -0.0897416 0
1.0331 -0.152666 0
1.00548 -0.155695 0
0.977171 -0.157553 0
0.956117 -0.120692 0
0.928754 -0.123397 0
0.900648 -0.125124 0
0.872783 -0.0897416 0
0.84575 -0.0921144 0
0.817899 -0.0937023 0
1.12158 -0.223898 0
1.09347 -0.224396 0
1.06524 -0.223455 0
1.05064 -0.19038 0
1.02306 -0.190958 0
0.995281 -0.190292 0
0.977171 -0.157553 0
0.949763 -0.158305 0
0.922107 -0.157997 0
1.06524 -0.223455 0
1.03831 -0.22122 0
1.01165 -0.217692 0
0.995281 -0.190292 0
0.968657 -0.188515 0
0.942224 -0.185622 0
0.922107 -0.157997 0
0.895541 -0.156748 0
0.869139 -0.154547 0
0.977171 -0.157553 0
0.949763 -0.158305 0
0.922107 -0.157997 0
0.900648 -0.125124 0
0.873362 -0.125936 0
0.845776 -0.125857 0
0.817899 -0.0937023 0
0.790792 -0.094561 0
0.763325 -0.0947049 0
0.922107 -0.157997 0
0.895541 -0.156748 0
0.869139 -0.154547 0
0.845776 -0.125857 0
0.819194 -0.124999 0
0.792726 -0.123339 0
0.763325 -0.0947049 0
0.736788 -0.0942311 0
0.710324 -0.0931102 0
0.926323 -0.0825832 0
0.900189 -0.0865555 0
0.872783 -0.0897416 0
0.830945 -0.0545072 0
0.805974 -0.0575699 0
0.779544 -0.0600465 0
0.68935 -0.027405 0
0.667881 -0.0294047 0
0.644677 -0.0310536 0
0.872783 -0.0897416 0
0.84575 -0.0921144 0
0.817899 -0.0937023 0
0.779544 -0.0600465 0
0.753318 -0.0619176 0
0.726126 -0.0631978 0
0.644677 -0.0310536 0
0.621458 -0.0323451 0
0.597078 -0.0332754 0
0.68935 -0.027405 0
0.667881 -0.0294047 0
0.644677 -0.0310536 0
0.440975 -0.00851122 0
0.427569 -0.00924101 0
0.412415 -0.0098126 0
0 0 0
0 0 0
0 0 0
0.644677 -0.0310536 0
0.621458 -0.0323451 0
0.597078 -0.0332754 0
0.412415 -0.0098126 0
0.397065 -0.0102709 0
0.380509 -0.0105702 0
0 0 0
0 0 0
0 0 0
0.817899 -0.0937023 0
0.790792 -0.094561 0
0.763325 -0.0947049 0
0.726126 -0.0631978 0
0.699527 -0.0639403 0
0.672467 -0.0641472 0
0.597078 -0.0332754 0
0.57307 -0.0338948 0
0.54846 -0.0341819 0
0.763325 -0.0947049 0
0.736788 -0.0942311 0
0.710324 -0.0931102 0
0.672467 -0.0641472 0
0.646221 -0.0639057 0
0.619988 -0.0631768 0