# vtk DataFile Version 3.0
#This file was generated by the deal.II library on 2025/1/7 at 23:23:19
ASCII
DATASET UNSTRUCTURED_GRID

POINTS 34560 double
1.1 1.1 0
1.03125 1.09531 0
0.9625 1.09063 0
1.09375 1.03125 0
1.02539 1.02686 0
0.957031 1.02246 0
1.0875 0.9625 0
1.01953 0.958398 0
0.951563 0.954297 0
0.9625 1.09063 0
0.89375 1.08594 0
0.825 1.08125 0
0.957031 1.02246 0
0.888672 1.01807 0
0.820312 1.01367 0
0.951563 0.954297 0
0.883594 0.950195 0
0.815625 0.946094 0
1.0875 0.9625 0
1.01953 0.958398 0
0.951563 0.954297 0
1.08125 0.89375 0
1.01367 0.889941 0
0.946094 0.886133 0
1.075 0.825 0
1.00781 0.821484 0
0.940625 0.817969 0
0.951563 0.954297 0
0.883594 0.950195 0
0.815625 0.946094 0
0.946094 0.886133 0
0.878516 0.882324 0
0.810938 0.878516 0
0.940625 0.817969 0
0.873438 0.814453 0
0.80625 0.810937 0
0.825 1.08125 0
0.75625 1.07656 0
0.6875 1.07187 0
0.820312 1.01367 0
0.751953 1.00928 0
0.683594 1.00488 0
0.815625 0.946094 0
0.747656 0.941992 0
0.679688 0.937891 0
0.6875 1.07187 0
0.61875 1.06719 0
0.55 1.0625 0
0.683594 1.00488 0
0.615234 1.00049 0
0.546875 0.996094 0
0.679688 0.937891 0
0.611719 0.933789 0
0.54375 0.929688 0
0.815625 0.946094 0
0.747656 0.941992 0
0.679688 0.937891 0
0.810938 0.878516 0
0.743359 0.874707 0
0.675781 0.870898 0
0.80625 0.810937 0
0.739063 0.807422 0
0.671875 0.803906 0
0.679688 0.937891 0
0.611719 0.933789 0
0.54375 0.929688 0
0.675781 0.870898 0
0.608203 0.86709 0
0.540625 0.863281 0
0.671875 0.803906 0
0.604688 0.800391 0
0.5375 0.796875 0
1.075 0.825 0
1.00781 0.821484 0
0.940625 0.817969 0
1.06875 0.75625 0
1.00195 0.753027 0
0.935156 0.749805 0
1.0625 0.6875 0
0.996094 0.68457 0
0.929688 0.681641 0
0.940625 0.817969 0
0.873438 0.814453 0
0.80625 0.810937 0
0.935156 0.749805 0
0.868359 0.746582 0
0.801563 0.743359 0
0.929688 0.681641 0
0.863281 0.678711 0
0.796875 0.675781 0
1.0625 0.6875 0
0.996094 0.68457 0
0.929688 0.681641 0
1.05625 0.61875 0
0.990234 0.616113 0
0.924219 0.613477 0
1.05 0.55 0
0.984375 0.547656 0
0.91875 0.545313 0
0.929688 0.681641 0
0.863281 0.678711 0
0.796875 0.675781 0
0.924219 0.613477 0
0.858203 0.61084 0
0.792188 0.608203 0
0.91875 0.545313 0
0.853125 0.542969 0
0.7875 0.540625 0
0.80625 0.810937 0
0.739063 0.807422 0
0.671875 0.803906 0
0.801563 0.743359 0
0.734766 0.740137 0
0.667969 0.736914 0
0.796875 0.675781 0
0.730469 0.672852 0
0.664062 0.669922 0
0.671875 0.803906 0
0.604688 0.800391 0
0.5375 0.796875 0
0.667969 0.736914 0
0.601172 0.733691 0
0.534375 0.730469 0
0.664062 0.669922 0
0.597656 0.666992 0
0.53125 0.664062 0
0.796875 0.675781 0
0.730469 0.672852 0
0.664062 0.669922 0
0.792188 0.608203 0
0.726172 0.605566 0
0.660156 0.60293 0
0.7875 0.540625 0
0.721875 0.538281 0
0.65625 0.535937 0
0.664062 0.669922 0
0.597656 0.666992 0
0.53125 0.664062 0
0.660156 0.60293 0
0.594141 0.600293 0
0.528125 0.597656 0
0.65625 0.535937 0
0.590625 0.533594 0
0.525 0.53125 0
0.55 1.0625 0
0.48125 1.05781 0
0.4125 1.05313 0
0.546875 0.996094 0
0.478516 0.991699 0
0.410156 0.987305 0
0.54375 0.929688 0
0.475781 0.925586 0
0.407813 0.921484 0
0.4125 1.05313 0
0.34375 1.04844 0
0.275 1.04375 0
0.410156 0.987305 0
0.341797 0.98291 0
0.273438 0.978516 0
0.407813 0.921484 0
0.339844 0.917383 0
0.271875 0.913281 0
0.54375 0.929688 0
0.475781 0.925586 0
0.407813 0.921484 0
0.540625 0.863281 0
0.473047 0.859473 0
0.405469 0.855664 0
0.5375 0.796875 0
0.470313 0.793359 0
0.403125 0.789844 0
0.407813 0.921484 0
0.339844 0.917383 0
0.271875 0.913281 0
0.405469 0.855664 0
0.337891 0.851855 0
0.270313 0.848047 0
0.403125 0.789844 0
0.335938 0.786328 0
0.26875 0.782813 0
0.275 1.04375 0
0.20625 1.03906 0
0.1375 1.03437 0
0.273438 0.978516 0
0.205078 0.974121 0
0.136719 0.969727 0
0.271875 0.913281 0
0.203906 0.90918 0
0.135938 0.905078 0
0.1375 1.03437 0
0.06875 1.02969 0
0 1.025 0
0.136719 0.969727 0
0.0683594 0.965332 0
0 0.960937 0
0.135938 0.905078 0
0.0679688 0.900977 0
0 0.896875 0
0.271875 0.913281 0
0.203906 0.90918 0
0.135938 0.905078 0
0.270313 0.848047 0
0.202734 0.844238 0
0.135156 0.84043 0
0.26875 0.782813 0
0.201563 0.779297 0
0.134375 0.775781 0
0.135938 0.905078 0
0.0679688 0.900977 0
0 0.896875 0
0.135156 0.84043 0
0.0675781 0.836621 0
0 0.832812 0
0.134375 0.775781 0
0.0671875 0.772266 0
0 0.76875 0
0.5375 0.796875 0
0.470313 0.793359 0
0.403125 0.789844 0
0.534375 0.730469 0
0.467578 0.727246 0
0.400781 0.724023 0
0.53125 0.664062 0
0.464844 0.661133 0
0.398438 0.658203 0
0.403125 0.789844 0
0.335938 0.786328 0
0.26875 0.782813 0
0.400781 0.724023 0
0.333984 0.720801 0
0.267188 0.717578 0
0.398438 0.658203 0
0.332031 0.655273 0
0.265625 0.652344 0
0.53125 0.664062 0
0.464844 0.661133 0
0.398438 0.658203 0
0.528125 0.597656 0
0.462109 0.59502 0
0.396094 0.592383 0
0.525 0.53125 0
0.459375 0.528906 0
0.39375 0.526563 0
0.398438 0.658203 0
0.332031 0.655273 0
0.265625 0.652344 0
0.396094 0.592383 0
0.330078 0.589746 0
0.264062 0.587109 0
0.39375 0.526563 0
0.328125 0.524219 0
0.2625 0.521875 0
0.26875 0.782813 0
0.201563 0.779297 0
0.134375 0.775781 0
0.267188 0.717578 0
0.200391 0.714355 0
0.133594 0.711133 0
0.265625 0.652344 0
0.199219 0.649414 0
0.132812 0.646484 0
0.134375 0.775781 0
0.0671875 0.772266 0
0 0.76875 0
0.133594 0.711133 0
0.0667969 0.70791 0
0 0.704687 0
0.132812 0.646484 0
0.0664062 0.643555 0
0 0.640625 0
0.265625 0.652344 0
0.199219 0.649414 0
0.132812 0.646484 0
0.264062 0.587109 0
0.198047 0.584473 0
0.132031 0.581836 0
0.2625 0.521875 0
0.196875 0.519531 0
0.13125 0.517187 0
0.132812 0.646484 0
0.0664062 0.643555 0
0 0.640625 0
0.132031 0.581836 0
0.0660156 0.579199 0
0 0.576562 0
0.13125 0.517187 0
0.065625 0.514844 0
0 0.5125 0
1.05 0.55 0
0.984375 0.547656 0
0.91875 0.545313 0
1.04375 0.48125 0
0.978516 0.479199 0
0.913281 0.477148 0
1.0375 0.4125 0
0.972656 0.410742 0
0.907813 0.408984 0
0.91875 0.545313 0
0.853125 0.542969 0
0.7875 0.540625 0
0.913281 0.477148 0
0.848047 0.475098 0
0.782813 0.473047 0
0.907813 0.408984 0
0.842969 0.407227 0
0.778125 0.405469 0
1.0375 0.4125 0
0.972656 0.410742 0
0.907813 0.408984 0
1.03125 0.34375 0
0.966797 0.342285 0
0.902344 0.34082 0
1.025 0.275 0
0.960937 0.273828 0
0.896875 0.272656 0
0.907813 0.408984 0
0.842969 0.407227 0
0.778125 0.405469 0
0.902344 0.34082 0
0.837891 0.339355 0
0.773438 0.337891 0
0.896875 0.272656 0
0.832812 0.271484 0
0.76875 0.270313 0
0.7875 0.540625 0
0.721875 0.538281 0
0.65625 0.535937 0
0.782813 0.473047 0
0.717578 0.470996 0
0.652344 0.468945 0
0.778125 0.405469 0
0.713281 0.403711 0
0.648438 0.401953 0
0.65625 0.535937 0
0.590625 0.533594 0
0.525 0.53125 0
0.652344 0.468945 0
0.587109 0.466895 0
0.521875 0.464844 0
0.648438 0.401953 0
0.583594 0.400195 0
0.51875 0.398438 0
0.778125 0.405469 0
0.713281 0.403711 0
0.648438 0.401953 0
0.773438 0.337891 0
0.708984 0.336426 0
0.644531 0.334961 0
0.76875 0.270313 0
0.704687 0.269141 0
0.640625 0.267969 0
0.648438 0.401953 0
0.583594 0.400195 0
0.51875 0.398438 0
0.644531 0.334961 0
0.580078 0.333496 0
0.515625 0.332031 0
0.640625 0.267969 0
0.576562 0.266797 0
0.5125 0.265625 0
1.025 0.275 0
0.960937 0.273828 0
0.896875 0.272656 0
1.01875 0.20625 0
0.955078 0.205371 0
0.891406 0.204492 0
1.0125 0.1375 0
0.949219 0.136914 0
0.885937 0.136328 0
0.896875 0.272656 0
0.832812 0.271484 0
0.76875 0.270313 0
0.891406 0.204492 0
0.827734 0.203613 0
0.764062 0.202734 0
0.885937 0.136328 0
0.822656 0.135742 0
0.759375 0.135156 0
1.0125 0.1375 0
0.949219 0.136914 0
0.885937 0.136328 0
1.00625 0.06875 0
0.943359 0.068457 0
0.880469 0.0681641 0
1 0 0
0.9375 0 0
0.875 0 0
0.885937 0.136328 0
0.822656 0.135742 0
0.759375 0.135156 0
0.880469 0.0681641 0
0.817578 0.0678711 0
0.754687 0.0675781 0
0.875 0 0
0.8125 0 0
0.75 0 0
0.76875 0.270313 0
0.704687 0.269141 0
0.640625 0.267969 0
0.764062 0.202734 0
0.700391 0.201855 0
0.636719 0.200977 0
0.759375 0.135156 0
0.696094 0.13457 0
0.632812 0.133984 0
0.640625 0.267969 0
0.576562 0.266797 0
0.5125 0.265625 0
0.636719 0.200977 0
0.573047 0.200098 0
0.509375 0.199219 0
0.632812 0.133984 0
0.569531 0.133398 0
0.50625 0.132812 0
0.759375 0.135156 0
0.696094 0.13457 0
0.632812 0.133984 0
0.754687 0.0675781 0
0.691797 0.0672852 0
0.628906 0.0669922 0
0.75 0 0
0.6875 0 0
0.625 0 0
0.632812 0.133984 0
0.569531 0.133398 0
0.50625 0.132812 0
0.628906 0.0669922 0
0.566016 0.0666992 0
0.503125 0.0664062 0
0.625 0 0
0.5625 0 0
0.5 0 0
0.525 0.53125 0
0.459375 0.528906 0
0.39375 0.526563 0
0.521875 0.464844 0
0.456641 0.462793 0
0.391406 0.460742 0
0.51875 0.398438 0
0.453906 0.39668 0
0.389063 0.394922 0
0.39375 0.526563 0
0.328125 0.524219 0
0.2625 0.521875 0
0.391406 0.460742 0
0.326172 0.458691 0
0.260938 0.456641 0
0.389063 0.394922 0
0.324219 0.393164 0
0.259375 0.391406 0
0.51875 0.398438 0
0.453906 0.39668 0
0.389063 0.394922 0
0.515625 0.332031 0
0.451172 0.330566 0
0.386719 0.329102 0
0.5125 0.265625 0
0.448437 0.264453 0
0.384375 0.263281 0
0.389063 0.394922 0
0.324219 0.393164 0
0.259375 0.391406 0
0.386719 0.329102 0
0.322266 0.327637 0
0.257812 0.326172 0
0.384375 0.263281 0
0.320312 0.262109 0
0.25625 0.260937 0
0.2625 0.521875 0
0.196875 0.519531 0
0.13125 0.517187 0
0.260938 0.456641 0
0.195703 0.45459 0
0.130469 0.452539 0
0.259375 0.391406 0
0.194531 0.389648 0
0.129688 0.387891 0
0.13125 0.517187 0
0.065625 0.514844 0
0 0.5125 0
0.130469 0.452539 0
0.0652344 0.450488 0
0 0.448437 0
0.129688 0.387891 0
0.0648438 0.386133 0
0 0.384375 0
0.259375 0.391406 0
0.194531 0.389648 0
0.129688 0.387891 0
0.257812 0.326172 0
0.193359 0.324707 0
0.128906 0.323242 0
0.25625 0.260937 0
0.192187 0.259766 0
0.128125 0.258594 0
0.129688 0.387891 0
0.0648438 0.386133 0
0 0.384375 0
0.128906 0.323242 0
0.0644531 0.321777 0
0 0.320312 0
0.128125 0.258594 0
0.0640625 0.257422 0
0 0.25625 0
0.5125 0.265625 0
0.448437 0.264453 0
0.384375 0.263281 0
0.509375 0.199219 0
0.445703 0.19834 0
0.382031 0.197461 0
0.50625 0.132812 0
0.442969 0.132227 0
0.379688 0.131641 0
0.384375 0.263281 0
0.320312 0.262109 0
0.25625 0.260937 0
0.382031 0.197461 0
0.318359 0.196582 0
0.254687 0.195703 0
[...]
POINT_DATA 34560
VECTORS v double
1.22493 -0.238861 0
1.21314 -0.216938 0
1.20211 -0.197516 0
1.19109 -0.224937 0
1.17747 -0.206129 0
1.16528 -0.188452 0
1.15441 -0.211164 0
1.13964 -0.194239 0
1.12585 -0.178224 0
1.20211 -0.197516 0
1.19316 -0.178919 0
1.18495 -0.16224 0
1.16528 -0.188452 0
1.15452 -0.171737 0
1.14517 -0.156226 0
1.12585 -0.178224 0
1.11374 -0.162986 0
1.10272 -0.148624 0
1.15441 -0.211164 0
1.13964 -0.194239 0
1.12585 -0.178224 0
1.11178 -0.193469 0
1.09562 -0.178938 0
1.08055 -0.165045 0
1.06229 -0.177177 0
1.04557 -0.164613 0
1.02981 -0.15244 0
1.12585 -0.178224 0
1.11374 -0.162986 0
1.10272 -0.148624 0
1.08055 -0.165045 0
1.06715 -0.151672 0
1.05494 -0.138936 0
1.02981 -0.15244 0
1.01574 -0.140594 0
1.00277 -0.129187 0
1.18495 -0.16224 0
1.1779 -0.146291 0
1.17155 -0.131673 0
1.14517 -0.156226 0
1.1365 -0.141432 0
1.12919 -0.127627 0
1.10272 -0.148624 0
1.09279 -0.134919 0
1.08402 -0.121937 0
1.17155 -0.131673 0
1.16553 -0.117606 0
1.16008 -0.104409 0
1.12919 -0.127627 0
1.12175 -0.114251 0
1.11551 -0.101602 0
1.08402 -0.121937 0
1.07547 -0.10939 0
1.06804 -0.097354 0
1.10272 -0.148624 0
1.09279 -0.134919 0
1.08402 -0.121937 0
1.05494 -0.138936 0
1.04389 -0.126593 0
1.03405 -0.11485 0
1.00277 -0.129187 0
0.990999 -0.118062 0
0.980391 -0.107367 0
1.08402 -0.121937 0
1.07547 -0.10939 0
1.06804 -0.097354 0
1.03405 -0.11485 0
1.02464 -0.103351 0
1.01635 -0.0922262 0
0.980391 -0.107367 0
0.970333 -0.0968212 0
0.961401 -0.0865496 0
1.06229 -0.177177 0
1.04557 -0.164613 0
1.02981 -0.15244 0
1.00788 -0.159853 0
0.99078 -0.149129 0
0.974577 -0.138628 0
0.949003 -0.143371 0
0.931724 -0.134171 0
0.91522 -0.125097 0
1.02981 -0.15244 0
1.01574 -0.140594 0
1.00277 -0.129187 0
0.974577 -0.138628 0
0.959951 -0.128304 0
0.946358 -0.118296 0
0.91522 -0.125097 0
0.90022 -0.116124 0
0.886171 -0.107365 0
0.949003 -0.143371 0
0.931724 -0.134171 0
0.91522 -0.125097 0
0.88529 -0.125647 0
0.867947 -0.117953 0
0.851333 -0.110333 0
0.816793 -0.109096 0
0.799696 -0.10266 0
0.783225 -0.0962636 0
0.91522 -0.125097 0
0.90022 -0.116124 0
0.886171 -0.107365 0
0.851333 -0.110333 0
0.836106 -0.102751 0
0.821787 -0.0953139 0
0.783225 -0.0962636 0
0.768017 -0.0898778 0
0.753631 -0.0835969 0
1.00277 -0.129187 0
0.990999 -0.118062 0
0.980391 -0.107367 0
0.946358 -0.118296 0
0.933994 -0.108445 0
0.922742 -0.0989084 0
0.886171 -0.107365 0
0.873362 -0.0986869 0
0.86162 -0.0902352 0
0.980391 -0.107367 0
0.970333 -0.0968212 0
0.961401 -0.0865496 0
0.922742 -0.0989084 0
0.91217 -0.0894342 0
0.9027 -0.0801465 0
0.86162 -0.0902352 0
0.850652 -0.0817854 0
0.840766 -0.0734496 0
0.886171 -0.107365 0
0.873362 -0.0986869 0
0.86162 -0.0902352 0
0.821787 -0.0953139 0
0.808676 -0.0878902 0
0.796602 -0.0806199 0
0.753631 -0.0835969 0
0.740395 -0.0773013 0
0.728136 -0.0711144 0
0.86162 -0.0902352 0
0.850652 -0.0817854 0
0.840766 -0.0734496 0
0.796602 -0.0806199 0
0.785357 -0.0732894 0
0.775184 -0.0660115 0
0.728136 -0.0711144 0
0.716738 -0.0648392 0
0.706386 -0.058573 0
1.16008 -0.104409 0
1.15486 -0.0914813 0
1.15016 -0.0789737 0
1.11551 -0.101602 0
1.10917 -0.0891358 0
1.10392 -0.0770443 0
1.06804 -0.097354 0
1.06085 -0.0855031 0
1.05474 -0.0739201 0
1.15016 -0.0789737 0
1.14528 -0.0664684 0
1.14085 -0.0540329 0
1.10392 -0.0770443 0
1.09818 -0.0648658 0
1.09338 -0.0527799 0
1.05474 -0.0739201 0
1.04836 -0.0622811 0
1.04298 -0.0506454 0
1.06804 -0.097354 0
1.06085 -0.0855031 0
1.05474 -0.0739201 0
1.01635 -0.0922262 0
1.00851 -0.0811596 0
1.00176 -0.0703204 0
0.961401 -0.0865496 0
0.953018 -0.0762905 0
0.945749 -0.0661771 0
1.05474 -0.0739201 0
1.04836 -0.0622811 0
1.04298 -0.0506454 0
1.00176 -0.0703204 0
0.994963 -0.0593607 0
0.989174 -0.0483306 0
0.945749 -0.0661771 0
0.938591 -0.0559047 0
0.932475 -0.0455414 0
1.14085 -0.0540329 0
1.1365 -0.0412551 0
1.13263 -0.0281328 0
1.09338 -0.0527799 0
1.0885 -0.040329 0
1.08452 -0.027553 0
1.04298 -0.0506454 0
1.03773 -0.0386675 0
1.03348 -0.0263832 0
1.13263 -0.0281328 0
1.12857 -0.0143567 0
1.125 0 0
1.08452 -0.027553 0
1.08017 -0.0140743 0
1.07666 0 0
1.03348 -0.0263832 0
1.02896 -0.0134712 0
1.02539 0 0
1.04298 -0.0506454 0
1.03773 -0.0386675 0
1.03348 -0.0263832 0
0.989174 -0.0483306 0
0.983704 -0.0369345 0
0.97926 -0.0252588 0
0.932475 -0.0455414 0
0.926784 -0.0348283 0
0.922159 -0.023822 0
1.03348 -0.0263832 0
1.02896 -0.0134712 0
1.02539 0 0
0.97926 -0.0252588 0
0.974735 -0.0129505 0
0.971191 0 0
0.922159 -0.023822 0
0.917589 -0.0122033 0
0.914062 0 0
0.961401 -0.0865496 0
0.953018 -0.0762905 0
0.945749 -0.0661771 0
0.9027 -0.0801465 0
0.893902 -0.070801 0
0.886211 -0.061531 0
0.840766 -0.0734496 0
0.831645 -0.0650136 0
0.823631 -0.0566017 0
0.945749 -0.0661771 0
0.938591 -0.0559047 0
0.932475 -0.0455414 0
0.886211 -0.061531 0
0.878799 -0.0520706 0
0.872444 -0.0424867 0
0.823631 -0.0566017 0
0.816027 -0.0479779 0
0.809492 -0.0392015 0
0.840766 -0.0734496 0
0.831645 -0.0650136 0
0.823631 -0.0566017 0
0.775184 -0.0660115 0
0.765844 -0.058584 0
0.757617 -0.0511293 0
0.706386 -0.058573 0
0.696913 -0.0521306 0
0.68855 -0.0456238 0
0.823631 -0.0566017 0
0.816027 -0.0479779 0
0.809492 -0.0392015 0
0.757617 -0.0511293 0
0.7499 -0.0434304 0
0.743271 -0.0355523 0
0.68855 -0.0456238 0
0.680781 -0.0388594 0
0.674114 -0.0318937 0
0.932475 -0.0455414 0
0.926784 -0.0348283 0
0.922159 -0.023822 0
0.872444 -0.0424867 0
0.866635 -0.0325411 0
0.861922 -0.02229 0
0.809492 -0.0392015 0
0.803594 -0.0300691 0
0.798817 -0.0206299 0
0.922159 -0.023822 0
0.917589 -0.0122033 0
0.914062 0 0
0.861922 -0.02229 0
0.857421 -0.0114394 0
0.854004 0 0
0.798817 -0.0206299 0
0.794357 -0.0106113 0
0.791016 0 0
0.809492 -0.0392015 0
0.803594 -0.0300691 0
0.798817 -0.0206299 0
0.743271 -0.0355523 0
0.73736 -0.0273146 0
0.7326 -0.0187685 0
0.674114 -0.0318937 0
0.668222 -0.0245743 0
0.663501 -0.0169468 0
0.798817 -0.0206299 0
0.794357 -0.0106113 0
0.791016 0 0
0.7326 -0.0187685 0
0.728268 -0.00966441 0
0.725098 0 0
0.663501 -0.0169468 0
0.65928 -0.00877713 0
0.65625 0 0
0.816793 -0.109096 0
0.799696 -0.10266 0
0.783225 -0.0962636 0
0.744009 -0.0920316 0
0.727235 -0.0867236 0
0.71103 -0.0814509 0
0.666561 -0.0760045 0
0.650301 -0.0716838 0
0.634552 -0.0673984 0
0.783225 -0.0962636 0
0.768017 -0.0898778 0
0.753631 -0.0835969 0
0.71103 -0.0814509 0
0.695947 -0.0761935 0
0.681622 -0.071033 0
0.634552 -0.0673984 0
0.619812 -0.0631404 0
0.60576 -0.0589795 0
0.666561 -0.0760045 0
0.650301 -0.0716838 0
0.634552 -0.0673984 0
0.58458 -0.0597598 0
0.568889 -0.05636 0
0.553713 -0.0529993 0
0.497285 -0.0445618 0
0.482341 -0.0420328 0
0.467922 -0.039537 0
0.634552 -0.0673984 0
0.619812 -0.0631404 0
0.60576 -0.0589795 0
0.553713 -0.0529993 0
0.539456 -0.0496726 0
0.525857 -0.0464427 0
0.467922 -0.039537 0
0.45437 -0.0370734 0
0.441462 -0.0346991 0
0.753631 -0.0835969 0
0.740395 -0.0773013 0
0.728136 -0.0711144 0
0.681622 -0.071033 0
0.668363 -0.0658591 0
0.656034 -0.0607774 0
0.60576 -0.0589795 0
0.592679 -0.054822 0
0.580456 -0.0507576 0
0.728136 -0.0711144 0
0.716738 -0.0648392 0
0.706386 -0.058573 0
0.656034 -0.0607774 0
0.644566 -0.0555979 0
0.634122 -0.0504027 0
0.580456 -0.0507576 0
0.569062 -0.0466083 0
0.558646 -0.0424362 0
0.60576 -0.0589795 0
0.592679 -0.054822 0
0.580456 -0.0507576 0
0.525857 -0.0464427 0
0.51313 -0.0432319 0
0.501202 -0.040125 0
0.441462 -0.0346991 0
0.429346 -0.0323549 0
0.417973 -0.0301158 0
0.580456 -0.0507576 0
0.569062 -0.0466083 0
0.558646 -0.0424362 0
0.501202 -0.040125 0
0.490035 -0.0369628 0
0.479786 -0.0337929 0
0.417973 -0.0301158 0
0.407288 -0.0278534 0
0.397442 -0.0256044 0
0.497285 -0.0445618 0
0.482341 -0.0420328 0
0.467922 -0.039537 0
0.403885 -0.0294701 0
0.389915 -0.0277953 0
0.376513 -0.026153 0
0.299601 -0.0158978 0
0.287555 -0.0150438 0
0.276018 -0.0142082 0
0.467922 -0.039537 0
0.45437 -0.0370734 0
0.441462 -0.0346991 0
0.376513 -0.026153 0
0.363925 -0.0245345 0
0.351993 -0.0229876 0
0.276018 -0.0142082 0
0.265177 -0.0133764 0
0.254921 -0.0125858 0
0.299601 -0.0158978 0
0.287555 -0.0150438 0
0.276018 -0.0142082 0
0.175661 -0.0048206 0
0.167284 -0.00454857 0
0.159258 -0.00429599 0
0 0 0
0 0 0
0 0 0
0.276018 -0.0142082 0
0.265177 -0.0133764 0
0.254921 -0.0125858 0
0.159258 -0.00429599 0
0.151657 -0.0040447 0
0.144471 -0.00382212 0
0 0 0
0 0 0
0 0 0
0.441462 -0.0346991 0
0.429346 -0.0323549 0
0.417973 -0.0301158 0
0.351993 -0.0229876 0
0.340777 -0.0214586 0
0.330273 -0.0200156 0
0.254921 -0.0125858 0
0.245256 -0.0117889 0
0.236203 -0.011045 0
0.417973 -0.0301158 0
0.407288 -0.0278534 0
0.397442 -0.0256044 0
0.330273 -0.0200156 0
0.320369 -0.0185554 0
0.311225 -0.0171156 0
0.236203 -0.011045 0
0.227643 -0.0102849 0
0.219718 -0.00954407 0
0.254921 -0.0125858 0
0.245256 -0.0117889 0
0.236203 -0.011045 0
0.144471 -0.00382212 0
0.137634 -0.00358047 0
0.131239 -0.00336973 0
0 0 0
0 0 0
0 0 0
0.236203 -0.011045 0
0.227643 -0.0102849 0
0.219718 -0.00954407 0
0.131239 -0.00336973 0
0.125139 -0.00313445 0
0.119516 -0.00291878 0
0 0 0
0 0 0
0 0 0
0.706386 -0.058573 0
0.696913 -0.0521306 0
0.68855 -0.0456238 0
0.634122 -0.0504027 0
0.624586 -0.0450114 0
0.616161 -0.0395251 0
0.558646 -0.0424362 0
0.549135 -0.0380657 0
0.540719 -0.0335864 0
0.68855 -0.0456238 0
0.680781 -0.0388594 0
0.674114 -0.0318937 0
0.616161 -0.0395251 0
0.608399 -0.033762 0
0.601753 -0.0277773 0
0.540719 -0.0335864 0
0.533017 -0.0288257 0
0.526442 -0.023829 0
0.558646 -0.0424362 0
0.549135 -0.0380657 0
0.540719 -0.0335864 0
0.479786 -0.0337929 0
0.470392 -0.0304475 0
0.462062 -0.027001 0
0.397442 -0.0256044 0
0.388357 -0.023222 0
0.380258 -0.0207609 0
0.540719 -0.0335864 0
0.533017 -0.0288257 0
0.526442 -0.023829 0
0.462062 -0.027001 0
0.454471 -0.0232821 0
0.448008 -0.0193212 0
0.380258 -0.0207609 0
0.372877 -0.0180554 0
0.366597 -0.0151217 0
0.674114 -0.0318937 0
0.668222 -0.0245743 0
0.663501 -0.0169468 0
0.601753 -0.0277773 0
0.595933 -0.0214405 0
0.59131 -0.0148028 0
0.526442 -0.023829 0
0.520727 -0.0184875 0
0.516229 -0.0128518 0
0.663501 -0.0169468 0
0.65928 -0.00877713 0
0.65625 0 0
0.59131 -0.0148028 0
0.587274 -0.00766356 0
0.584473 0 0
0.516229 -0.0128518 0
0.51237 -0.00673648 0
0.509766 0 0
0.526442 -0.023829 0
0.520727 -0.0184875 0
0.516229 -0.0128518 0
0.448008 -0.0193212 0
0.442428 -0.0150224 0
0.438085 -0.01045 0
0.366597 -0.0151217 0
0.361196 -0.0118718 0
0.357038 -0.00836452 0
0.516229 -0.0128518 0
0.51237 -0.00673648 0
0.509766 0 0
0.438085 -0.01045 0
0.434454 -0.00545953 0
0.432129 0 0
0.357038 -0.00836452 0
0.353641 -0.00448561 0
0.351562 0 0
0.397442 -0.0256044 0
0.388357 -0.023222 0
0.380258 -0.0207609 0
0.311225 -0.0171156 0
0.302708 -0.015579 0
0.295071 -0.014001 0
0.219718 -0.00954407 0
0.212279 -0.00874768 0
0.205558 -0.00794209 0
0.380258 -0.0207609 0
0.372877 -0.0180554 0
0.366597 -0.0151217 0
0.295071 -0.014001 0
0.28806 -0.0122422 0
0.282071 -0.0103046 0
0.205558 -0.00794209 0
0.199343 -0.00703913 0
0.193998 -0.0060395 0
0.219718 -0.00954407 0
0.212279 -0.00874768 0
0.205558 -0.00794209 0
0.119516 -0.00291878 0
0.114171 -0.00266694 0
0.109387 -0.00242418 0
0 0 0
0 0 0
0 0 0
0.205558 -0.00794209 0
0.199343 -0.00703913 0
0.193998 -0.0060395 0
0.109387 -0.00242418 0
0.104887 -0.00213108 0
0.101053 -0.00181771 0
0 0 0
0 0 0
0 0 0
0.366597 -0.0151217 0
0.361196 -0.0118718 0
0.357038 -0.00836452 0
0.282071 -0.0103046 0
0.276904 -0.00810141 0
0.272966 -0.00569254 0
0.193998 -0.0060395 0
0.189362 -0.00487338 0
0.185839 -0.00355608 0
0.357038 -0.00836452 0
0.353641 -0.00448561 0
0.351562 0 0
0.272966 -0.00569254 0
0.269836 -0.00299723 0
0.268066 0 0
0.185839 -0.00355608 0
0.183102 -0.00203572 0
0.181641 0 0
0.193998 -0.0060395 0
0.189362 -0.00487338 0
0.185839 -0.00355608 0
0.101053 -0.00181771 0
0.0976444 -0.00144495 0
0.0951619 -0.00101985 0
0 0 0
0 0 0
0 0 0
0.185839 -0.00355608 0
0.183102 -0.00203572 0
0.181641 0 0
0.0951619 -0.00101985 0
0.0931704 -0.000497095 0
0.0922852 0 0
0 0 0
0 0 0
0 0 0
1.65122 -0.301282 0
1.6206 -0.327063 0
1.58382 -0.349502 0
1.57666 -0.256703 0
1.54745 -0.281585 0
1.5156 -0.302156 0
1.49905 -0.222453 0
1.47636 -0.245704 0
1.45017 -0.265102 0
1.58382 -0.349502 0
1.54805 -0.363724 0
1.50774 -0.373973 0
1.5156 -0.302156 0
1.48257 -0.31736 0
1.44769 -0.32792 0
1.45017 -0.265102 0
1.42359 -0.280269 0
1.39439 -0.291163 0
1.49905 -0.222453 0
1.47636 -0.245704 0
1.45017 -0.265102 0
1.43607 -0.195058 0
1.41626 -0.214234 0
1.39367 -0.230514 0
1.359 -0.166841 0
1.34102 -0.183886 0
1.32061 -0.198482 0
1.45017 -0.265102 0
1.42359 -0.280269 0
1.39439 -0.291163 0
1.39367 -0.230514 0
1.3699 -0.243339 0
1.34388 -0.252923 0
1.32061 -0.198482 0
1.29932 -0.210395 0
1.27612 -0.219571 0
1.50774 -0.373973 0
1.47213 -0.377044 0
1.43371 -0.375873 0
1.44769 -0.32792 0
1.41534 -0.333203 0
1.38214 -0.334793 0
1.39439 -0.291163 0
1.36747 -0.297918 0
1.33887 -0.300804 0
1.43371 -0.375873 0
1.40124 -0.369926 0
1.3673 -0.360941 0
1.38214 -0.334793 0
1.3527 -0.33222 0
1.32315 -0.32666 0
1.33887 -0.300804 0
1.31334 -0.300165 0
1.28691 -0.296394 0
1.39439 -0.291163 0
1.36747 -0.297918 0
1.33887 -0.300804 0
1.34388 -0.252923 0
1.31901 -0.259082 0
1.29261 -0.262247 0
1.27612 -0.219571 0
1.25391 -0.225994 0
1.23048 -0.229884 0
1.33887 -0.300804 0
1.31334 -0.300165 0
1.28691 -0.296394 0
1.29261 -0.262247 0
1.26837 -0.262566 0
1.24332 -0.260411 0
1.23048 -0.229884 0
1.20877 -0.231339 0
1.1864 -0.230603 0
1.359 -0.166841 0
1.34102 -0.183886 0
1.32061 -0.198482 0
1.28051 -0.146313 0
1.2651 -0.161116 0
1.24747 -0.17391 0
1.2062 -0.125807 0
1.19211 -0.138913 0
1.17605 -0.150329 0
1.32061 -0.198482 0
1.29932 -0.210395 0
1.27612 -0.219571 0
1.24747 -0.17391 0
1.22909 -0.184405 0
1.20887 -0.192603 0
1.17605 -0.150329 0
1.15921 -0.159784 0
1.14072 -0.167291 0
1.2062 -0.125807 0
1.19211 -0.138913 0
1.17605 -0.150329 0
1.12925 -0.107305 0
1.11629 -0.118557 0
1.10148 -0.128387 0
1.049 -0.0895298 0
1.03688 -0.0993272 0
1.02306 -0.107977 0
1.17605 -0.150329 0
1.15921 -0.159784 0
1.14072 -0.167291 0
1.10148 -0.128387 0
1.08598 -0.136611 0
1.06893 -0.143217 0
1.02306 -0.107977 0
1.00865 -0.1153 0
0.992789 -0.121272 0
1.27612 -0.219571 0
1.25391 -0.225994 0
1.23048 -0.229884 0
1.20887 -0.192603 0
1.18935 -0.198441 0
1.16851 -0.202115 0
1.14072 -0.167291 0
1.12266 -0.17278 0
1.1034 -0.176423 0
1.23048 -0.229884 0
1.20877 -0.231339 0
1.1864 -0.230603 0
1.16851 -0.202115 0
1.14895 -0.20371 0
1.12855 -0.203401 0
1.1034 -0.176423 0
1.08511 -0.178269 0
1.06608 -0.178473 0
1.14072 -0.167291 0
1.12266 -0.17278 0
1.1034 -0.176423 0
1.06893 -0.143217 0
1.05221 -0.148171 0
1.03436 -0.151563 0
0.992789 -0.121272 0
0.977192 -0.125841 0
0.960518 -0.129085 0
1.1034 -0.176423 0
1.08511 -0.178269 0
1.06608 -0.178473 0
1.03436 -0.151563 0
1.01731 -0.153459 0
0.999505 -0.153936 0
0.960518 -0.129085 0
0.944493 -0.131034 0
0.927743 -0.131754 0
1.3673 -0.360941 0
1.34063 -0.349237 0
1.31376 -0.335001 0
1.32315 -0.32666 0
1.29893 -0.318016 0
1.27529 -0.307741 0
1.28691 -0.296394 0
1.26466 -0.290156 0
1.24231 -0.281831 0
1.31376 -0.335001 0
1.29283 -0.319877 0
1.27239 -0.303686 0
1.27529 -0.307741 0
1.25589 -0.295782 0
1.23741 -0.282678 0
1.24231 -0.281831 0
1.2234 -0.271903 0
1.20489 -0.260688 0
1.28691 -0.296394 0
1.26466 -0.290156 0
1.24231 -0.281831 0
1.24332 -0.260411 0
1.22168 -0.256114 0
1.19993 -0.250018 0
1.1864 -0.230603 0
1.16678 -0.227919 0
1.14708 -0.223621 0
1.24231 -0.281831 0
1.2234 -0.271903 0
1.20489 -0.260688 0
1.19993 -0.250018 0
1.18128 -0.242551 0
1.16303 -0.233922 0
1.14708 -0.223621 0
1.12979 -0.217957 0
1.11279 -0.211138 0
1.27239 -0.303686 0
1.25755 -0.287557 0
1.24392 -0.270662 0
1.23741 -0.282678 0
1.22328 -0.268613 0
1.21036 -0.254241 0
1.20489 -0.260688 0
1.19003 -0.24875 0
1.17614 -0.236286 0
1.24392 -0.270662 0
1.23394 -0.254528 0
1.22493 -0.238861 0
1.21036 -0.254241 0
1.20008 -0.239646 0
1.19109 -0.224937 0
1.17614 -0.236286 0
1.16468 -0.223671 0
1.15441 -0.211164 0
1.20489 -0.260688 0
1.19003 -0.24875 0
1.17614 -0.236286 0
1.16303 -0.233922 0
1.1482 -0.224522 0
1.13422 -0.214498 0
1.11279 -0.211138 0
1.09854 -0.203451 0
1.08496 -0.195109 0
1.17614 -0.236286 0
1.16468 -0.223671 0
1.15441 -0.211164 0
1.13422 -0.214498 0
1.12251 -0.204127 0
1.11178 -0.193469 0
1.08496 -0.195109 0
1.0732 -0.186301 0
1.06229 -0.177177 0
1.1864 -0.230603 0
1.16678 -0.227919 0
1.14708 -0.223621 0
1.12855 -0.203401 0
1.11032 -0.201438 0
1.09178 -0.198063 0
1.06608 -0.178473 0
1.0488 -0.177228 0
1.03124 -0.174748 0
1.14708 -0.223621 0
1.12979 -0.217957 0
1.11279 -0.211138 0
1.09178 -0.198063 0
1.07521 -0.193535 0
1.05873 -0.18796 0
1.03124 -0.174748 0
1.01534 -0.171226 0
0.999512 -0.166775 0
1.06608 -0.178473 0
1.0488 -0.177228 0
1.03124 -0.174748 0
0.999505 -0.153936 0
0.983164 -0.15318 0
0.966496 -0.151326 0
0.927743 -0.131754 0
0.912195 -0.131387 0
0.896302 -0.130058 0
1.03124 -0.174748 0
1.01534 -0.171226 0
0.999512 -0.166775 0
0.966496 -0.151326 0
0.951195 -0.148567 0
0.935881 -0.144974 0
0.896302 -0.130058 0
0.881567 -0.127923 0
0.866781 -0.125046 0
1.11279 -0.211138 0
1.09854 -0.203451 0
1.08496 -0.195109 0
1.05873 -0.18796 0
1.04462 -0.181655 0
1.03104 -0.17478 0
0.999512 -0.166775 0
0.9857 -0.16164 0
0.972304 -0.155961 0
1.08496 -0.195109 0
1.0732 -0.186301 0
1.06229 -0.177177 0
1.03104 -0.17478 0
1.0191 -0.16751 0
1.00788 -0.159853 0
0.972304 -0.155961 0
0.96035 -0.149854 0
0.949003 -0.143371 0
0.999512 -0.166775 0
0.9857 -0.16164 0
0.972304 -0.155961 0
0.935881 -0.144974 0
0.922253 -0.14078 0
0.908938 -0.136086 0
0.866781 -0.125046 0
0.853441 -0.121628 0
0.840354 -0.117771 0
0.972304 -0.155961 0
0.96035 -0.149854 0
0.949003 -0.143371 0
0.908938 -0.136086 0
0.896859 -0.131029 0
0.88529 -0.125647 0
0.840354 -0.117771 0
0.828355 -0.113586 0
0.816793 -0.109096 0
1.049 -0.0895298 0
1.03688 -0.0993272 0
1.02306 -0.107977 0
0.968522 -0.0745602 0
0.956958 -0.0827729 0
0.943823 -0.0900514 0
0.88716 -0.0591794 0
0.87568 -0.0661578 0
0.862715 -0.0723802 0
1.02306 -0.107977 0
1.00865 -0.1153 0
0.992789 -0.121272 0
0.943823 -0.0900514 0
0.930139 -0.0962372 0
0.915102 -0.101303 0
0.862715 -0.0723802 0
0.849315 -0.0777055 0
0.834649 -0.0821114 0
0.88716 -0.0591794 0
0.87568 -0.0661578 0
0.862715 -0.0723802 0
0.80375 -0.0450792 0
0.792344 -0.0507937 0
0.779515 -0.0559009 0
0.715385 -0.0310291 0
0.704123 -0.03561 0
0.691403 -0.0397342 0
0.862715 -0.0723802 0
0.849315 -0.0777055 0
0.834649 -0.0821114 0
0.779515 -0.0559009 0
0.766296 -0.0602826 0
0.751855 -0.0639251 0
0.691403 -0.0397342 0
0.678334 -0.0432973 0
0.664037 -0.0462899 0
0.992789 -0.121272 0
0.977192 -0.125841 0
0.960518 -0.129085 0
0.915102 -0.101303 0
0.900243 -0.105211 0
0.884358 -0.108016 0
0.834649 -0.0821114 0
0.820148 -0.0855602 0
0.80469 -0.0880939 0
0.960518 -0.129085 0
0.944493 -0.131034 0
0.927743 -0.131754 0
0.884358 -0.108016 0
0.869011 -0.109751 0
0.852967 -0.110451 0
0.80469 -0.0880939 0
0.789726 -0.089732 0
0.774119 -0.0904991 0
0.834649 -0.0821114 0
0.820148 -0.0855602 0
0.80469 -0.0880939 0
0.751855 -0.0639251 0
0.737548 -0.0667958 0
0.722309 -0.0689248 0
0.664037 -0.0462899 0
0.64985 -0.0486808 0
0.634736 -0.0504929 0
0.80469 -0.0880939 0
0.789726 -0.089732 0
0.774119 -0.0904991 0
0.722309 -0.0689248 0
0.707518 -0.0703313 0
0.6921 -0.0710247 0
0.634736 -0.0504929 0
0.620039 -0.0517403 0
0.604735 -0.052425 0
0.715385 -0.0310291 0
0.704123 -0.03561 0
0.691403 -0.0397342 0
0.61375 -0.0183554 0
0.603619 -0.0217084 0
0.591892 -0.0247473 0
0.478737 -0.00702109 0
0.471504 -0.00907444 0
0.462496 -0.0109725 0
0.691403 -0.0397342 0
0.678334 -0.0432973 0
0.664037 -0.0462899 0
0.591892 -0.0247473 0
0.579724 -0.027382 0
0.566212 -0.0296136 0
0.462496 -0.0109725 0
0.452906 -0.0126494 0
0.441852 -0.0141038 0
0.478737 -0.00702109 0
0.471504 -0.00907444 0
0.462496 -0.0109725 0
0.284041 -0.00171061 0
0.281757 -0.0023953 0
0.277749 -0.00303936 0
0 0 0
0 0 0
0 0 0
0.462496 -0.0109725 0
0.452906 -0.0126494 0
0.441852 -0.0141038 0
0.277749 -0.00303936 0
0.273297 -0.00360398 0
0.267346 -0.00409243 0
0 0 0
0 0 0
0 0 0
0.664037 -0.0462899 0
0.64985 -0.0486808 0
0.634736 -0.0504929 0
0.566212 -0.0296136 0
0.552711 -0.0314132 0
0.538196 -0.0327967 0
0.441852 -0.0141038 0
0.430629 -0.0153157 0