# vtk DataFile Version 3.0
#This file was generated by the deal.II library on 2025/1/3 at 12:35:11
ASCII
DATASET UNSTRUCTURED_GRID

POINTS 34560 double
1.1 1.1 0
1.03125 1.09531 0
0.9625 1.09063 0
1.09375 1.03125 0
1.02539 1.02686 0
0.957031 1.02246 0
1.0875 0.9625 0
1.01953 0.958398 0
0.951563 0.954297 0
0.9625 1.09063 0
0.89375 1.08594 0
0.825 1.08125 0
0.957031 1.02246 0
0.888672 1.01807 0
0.820312 1.01367 0
0.951563 0.954297 0
0.883594 0.950195 0
0.815625 0.946094 0
1.0875 0.9625 0
1.01953 0.958398 0
0.951563 0.954297 0
1.08125 0.89375 0
1.01367 0.889941 0
0.946094 0.886133 0
1.075 0.825 0
1.00781 0.821484 0
0.940625 0.817969 0
0.951563 0.954297 0
0.883594 0.950195 0
0.815625 0.946094 0
0.946094 0.886133 0
0.878516 0.882324 0
0.810938 0.878516 0
0.940625 0.817969 0
0.873438 0.814453 0
0.80625 0.810937 0
0.825 1.08125 0
0.75625 1.07656 0
0.6875 1.07187 0
0.820312 1.01367 0
0.751953 1.00928 0
0.683594 1.00488 0
0.815625 0.946094 0
0.747656 0.941992 0
0.679688 0.937891 0
0.6875 1.07187 0
0.61875 1.06719 0
0.55 1.0625 0
0.683594 1.00488 0
0.615234 1.00049 0
0.546875 0.996094 0
0.679688 0.937891 0
0.611719 0.933789 0
0.54375 0.929688 0
0.815625 0.946094 0
0.747656 0.941992 0
0.679688 0.937891 0
0.810938 0.878516 0
0.743359 0.874707 0
0.675781 0.870898 0
0.80625 0.810937 0
0.739063 0.807422 0
0.671875 0.803906 0
0.679688 0.937891 0
0.611719 0.933789 0
0.54375 0.929688 0
0.675781 0.870898 0
0.608203 0.86709 0
0.540625 0.863281 0
0.671875 0.803906 0
0.604688 0.800391 0
0.5375 0.796875 0
1.075 0.825 0
1.00781 0.821484 0
0.940625 0.817969 0
1.06875 0.75625 0
1.00195 0.753027 0
0.935156 0.749805 0
1.0625 0.6875 0
0.996094 0.68457 0
0.929688 0.681641 0
0.940625 0.817969 0
0.873438 0.814453 0
0.80625 0.810937 0
0.935156 0.749805 0
0.868359 0.746582 0
0.801563 0.743359 0
0.929688 0.681641 0
0.863281 0.678711 0
0.796875 0.675781 0
1.0625 0.6875 0
0.996094 0.68457 0
0.929688 0.681641 0
1.05625 0.61875 0
0.990234 0.616113 0
0.924219 0.613477 0
1.05 0.55 0
0.984375 0.547656 0
0.91875 0.545313 0
0.929688 0.681641 0
0.863281 0.678711 0
0.796875 0.675781 0
0.924219 0.613477 0
0.858203 0.61084 0
0.792188 0.608203 0
0.91875 0.545313 0
0.853125 0.542969 0
0.7875 0.540625 0
0.80625 0.810937 0
0.739063 0.807422 0
0.671875 0.803906 0
0.801563 0.743359 0
0.734766 0.740137 0
0.667969 0.736914 0
0.796875 0.675781 0
0.730469 0.672852 0
0.664062 0.669922 0
0.671875 0.803906 0
0.604688 0.800391 0
0.5375 0.796875 0
0.667969 0.736914 0
0.601172 0.733691 0
0.534375 0.730469 0
0.664062 0.669922 0
0.597656 0.666992 0
0.53125 0.664062 0
0.796875 0.675781 0
0.730469 0.672852 0
0.664062 0.669922 0
0.792188 0.608203 0
0.726172 0.605566 0
0.660156 0.60293 0
0.7875 0.540625 0
0.721875 0.538281 0
0.65625 0.535937 0
0.664062 0.669922 0
0.597656 0.666992 0
0.53125 0.664062 0
0.660156 0.60293 0
0.594141 0.600293 0
0.528125 0.597656 0
0.65625 0.535937 0
0.590625 0.533594 0
0.525 0.53125 0
0.55 1.0625 0
0.48125 1.05781 0
0.4125 1.05313 0
0.546875 0.996094 0
0.478516 0.991699 0
0.410156 0.987305 0
0.54375 0.929688 0
0.475781 0.925586 0
0.407813 0.921484 0
0.4125 1.05313 0
0.34375 1.04844 0
0.275 1.04375 0
0.410156 0.987305 0
0.341797 0.98291 0
0.273438 0.978516 0
0.407813 0.921484 0
0.339844 0.917383 0
0.271875 0.913281 0
0.54375 0.929688 0
0.475781 0.925586 0
0.407813 0.921484 0
0.540625 0.863281 0
0.473047 0.859473 0
0.405469 0.855664 0
0.5375 0.796875 0
0.470313 0.793359 0
0.403125 0.789844 0
0.407813 0.921484 0
0.339844 0.917383 0
0.271875 0.913281 0
0.405469 0.855664 0
0.337891 0.851855 0
0.270313 0.848047 0
0.403125 0.789844 0
0.335938 0.786328 0
0.26875 0.782813 0
0.275 1.04375 0
0.20625 1.03906 0
0.1375 1.03437 0
0.273438 0.978516 0
0.205078 0.974121 0
0.136719 0.969727 0
0.271875 0.913281 0
0.203906 0.90918 0
0.135938 0.905078 0
0.1375 1.03437 0
0.06875 1.02969 0
0 1.025 0
0.136719 0.969727 0
0.0683594 0.965332 0
0 0.960937 0
0.135938 0.905078 0
0.0679688 0.900977 0
0 0.896875 0
0.271875 0.913281 0
0.203906 0.90918 0
0.135938 0.905078 0
0.270313 0.848047 0
0.202734 0.844238 0
0.135156 0.84043 0
0.26875 0.782813 0
0.201563 0.779297 0
0.134375 0.775781 0
0.135938 0.905078 0
0.0679688 0.900977 0
0 0.896875 0
0.135156 0.84043 0
0.0675781 0.836621 0
0 0.832812 0
0.134375 0.775781 0
0.0671875 0.772266 0
0 0.76875 0
0.5375 0.796875 0
0.470313 0.793359 0
0.403125 0.789844 0
0.534375 0.730469 0
0.467578 0.727246 0
0.400781 0.724023 0
0.53125 0.664062 0
0.464844 0.661133 0
0.398438 0.658203 0
0.403125 0.789844 0
0.335938 0.786328 0
0.26875 0.782813 0
0.400781 0.724023 0
0.333984 0.720801 0
0.267188 0.717578 0
0.398438 0.658203 0
0.332031 0.655273 0
0.265625 0.652344 0
0.53125 0.664062 0
0.464844 0.661133 0
0.398438 0.658203 0
0.528125 0.597656 0
0.462109 0.59502 0
0.396094 0.592383 0
0.525 0.53125 0
0.459375 0.528906 0
0.39375 0.526563 0
0.398438 0.658203 0
0.332031 0.655273 0
0.265625 0.652344 0
0.396094 0.592383 0
0.330078 0.589746 0
0.264062 0.587109 0
0.39375 0.526563 0
0.328125 0.524219 0
0.2625 0.521875 0
0.26875 0.782813 0
0.201563 0.779297 0
0.134375 0.775781 0
0.267188 0.717578 0
0.200391 0.714355 0
0.133594 0.711133 0
0.265625 0.652344 0
0.199219 0.649414 0
0.132812 0.646484 0
0.134375 0.775781 0
0.0671875 0.772266 0
0 0.76875 0
0.133594 0.711133 0
0.0667969 0.70791 0
0 0.704687 0
0.132812 0.646484 0
0.0664062 0.643555 0
0 0.640625 0
0.265625 0.652344 0
0.199219 0.649414 0
0.132812 0.646484 0
0.264062 0.587109 0
0.198047 0.584473 0
0.132031 0.581836 0
0.2625 0.521875 0
0.196875 0.519531 0
0.13125 0.517187 0
0.132812 0.646484 0
0.0664062 0.643555 0
0 0.640625 0
0.132031 0.581836 0
0.0660156 0.579199 0
0 0.576562 0
0.13125 0.517187 0
0.065625 0.514844 0
0 0.5125 0
1.05 0.55 0
0.984375 0.547656 0
0.91875 0.545313 0
1.04375 0.48125 0
0.978516 0.479199 0
0.913281 0.477148 0
1.0375 0.4125 0
0.972656 0.410742 0
0.907813 0.408984 0
0.91875 0.545313 0
0.853125 0.542969 0
0.7875 0.540625 0
0.913281 0.477148 0
0.848047 0.475098 0
0.782813 0.473047 0
0.907813 0.408984 0
0.842969 0.407227 0
0.778125 0.405469 0
1.0375 0.4125 0
0.972656 0.410742 0
0.907813 0.408984 0
1.03125 0.34375 0
0.966797 0.342285 0
0.902344 0.34082 0
1.025 0.275 0
0.960937 0.273828 0
0.896875 0.272656 0
0.907813 0.408984 0
0.842969 0.407227 0
0.778125 0.405469 0
0.902344 0.34082 0
0.837891 0.339355 0
0.773438 0.337891 0
0.896875 0.272656 0
0.832812 0.271484 0
0.76875 0.270313 0
0.7875 0.540625 0
0.721875 0.538281 0
0.65625 0.535937 0
0.782813 0.473047 0
0.717578 0.470996 0
0.652344 0.468945 0
0.778125 0.405469 0
0.713281 0.403711 0
0.648438 0.401953 0
0.65625 0.535937 0
0.590625 0.533594 0
0.525 0.53125 0
0.652344 0.468945 0
0.587109 0.466895 0
0.521875 0.464844 0
0.648438 0.401953 0
0.583594 0.400195 0
0.51875 0.398438 0
0.778125 0.405469 0
0.713281 0.403711 0
0.648438 0.401953 0
0.773438 0.337891 0
0.708984 0.336426 0
0.644531 0.334961 0
0.76875 0.270313 0
0.704687 0.269141 0
0.640625 0.267969 0
0.648438 0.401953 0
0.583594 0.400195 0
0.51875 0.398438 0
0.644531 0.334961 0
0.580078 0.333496 0
0.515625 0.332031 0
0.640625 0.267969 0
0.576562 0.266797 0
0.5125 0.265625 0
1.025 0.275 0
0.960937 0.273828 0
0.896875 0.272656 0
1.01875 0.20625 0
0.955078 0.205371 0
0.891406 0.204492 0
1.0125 0.1375 0
0.949219 0.136914 0
0.885937 0.136328 0
0.896875 0.272656 0
0.832812 0.271484 0
0.76875 0.270313 0
0.891406 0.204492 0
0.827734 0.203613 0
0.764062 0.202734 0
0.885937 0.136328 0
0.822656 0.135742 0
0.759375 0.135156 0
1.0125 0.1375 0
0.949219 0.136914 0
0.885937 0.136328 0
1.00625 0.06875 0
0.943359 0.068457 0
0.880469 0.0681641 0
1 0 0
0.9375 0 0
0.875 0 0
0.885937 0.136328 0
0.822656 0.135742 0
0.759375 0.135156 0
0.880469 0.0681641 0
0.817578 0.0678711 0
0.754687 0.0675781 0
0.875 0 0
0.8125 0 0
0.75 0 0
0.76875 0.270313 0
0.704687 0.269141 0
0.640625 0.267969 0
0.764062 0.202734 0
0.700391 0.201855 0
0.636719 0.200977 0
0.759375 0.135156 0
0.696094 0.13457 0
0.632812 0.133984 0
0.640625 0.267969 0
0.576562 0.266797 0
0.5125 0.265625 0
0.636719 0.200977 0
0.573047 0.200098 0
0.509375 0.199219 0
0.632812 0.133984 0
0.569531 0.133398 0
0.50625 0.132812 0
0.759375 0.135156 0
0.696094 0.13457 0
0.632812 0.133984 0
0.754687 0.0675781 0
0.691797 0.0672852 0
0.628906 0.0669922 0
0.75 0 0
0.6875 0 0
0.625 0 0
0.632812 0.133984 0
0.569531 0.133398 0
0.50625 0.132812 0
0.628906 0.0669922 0
0.566016 0.0666992 0
0.503125 0.0664062 0
0.625 0 0
0.5625 0 0
0.5 0 0
0.525 0.53125 0
0.459375 0.528906 0
0.39375 0.526563 0
0.521875 0.464844 0
0.456641 0.462793 0
0.391406 0.460742 0
0.51875 0.398438 0
0.453906 0.39668 0
0.389063 0.394922 0
0.39375 0.526563 0
0.328125 0.524219 0
0.2625 0.521875 0
0.391406 0.460742 0
0.326172 0.458691 0
0.260938 0.456641 0
0.389063 0.394922 0
0.324219 0.393164 0
0.259375 0.391406 0
0.51875 0.398438 0
0.453906 0.39668 0
0.389063 0.394922 0
0.515625 0.332031 0
0.451172 0.330566 0
0.386719 0.329102 0
0.5125 0.265625 0
0.448437 0.264453 0
0.384375 0.263281 0
0.389063 0.394922 0
0.324219 0.393164 0
0.259375 0.391406 0
0.386719 0.329102 0
0.322266 0.327637 0
0.257812 0.326172 0
0.384375 0.263281 0
0.320312 0.262109 0
0.25625 0.260937 0
0.2625 0.521875 0
0.196875 0.519531 0
0.13125 0.517187 0
0.260938 0.456641 0
0.195703 0.45459 0
0.130469 0.452539 0
0.259375 0.391406 0
0.194531 0.389648 0
0.129688 0.387891 0
0.13125 0.517187 0
0.065625 0.514844 0
0 0.5125 0
0.130469 0.452539 0
0.0652344 0.450488 0
0 0.448437 0
0.129688 0.387891 0
0.0648438 0.386133 0
0 0.384375 0
0.259375 0.391406 0
0.194531 0.389648 0
0.129688 0.387891 0
0.257812 0.326172 0
0.193359 0.324707 0
0.128906 0.323242 0
0.25625 0.260937 0
0.192187 0.259766 0
0.128125 0.258594 0
0.129688 0.387891 0
0.0648438 0.386133 0
0 0.384375 0
0.128906 0.323242 0
0.0644531 0.321777 0
0 0.320312 0
0.128125 0.258594 0
0.0640625 0.257422 0
0 0.25625 0
0.5125 0.265625 0
0.448437 0.264453 0
0.384375 0.263281 0
0.509375 0.199219 0
0.445703 0.19834 0
0.382031 0.197461 0
0.50625 0.132812 0
0.442969 0.132227 0
0.379688 0.131641 0
0.384375 0.263281 0
0.320312 0.262109 0
0.25625 0.260937 0
0.382031 0.197461 0
0.318359 0.196582 0
0.254687 0.195703 0
[...]
POINT_DATA 34560
VECTORS v double
1.24006 -0.312814 0
1.22608 -0.28418 0
1.21377 -0.258172 0
1.20987 -0.295985 0
1.19366 -0.270539 0
1.17957 -0.246474 0
1.1749 -0.278391 0
1.15717 -0.255232 0
1.14121 -0.233113 0
1.21377 -0.258172 0
1.20292 -0.233281 0
1.19352 -0.210272 0
1.17957 -0.246474 0
1.16659 -0.22354 0
1.15553 -0.202 0
1.14121 -0.233113 0
1.12664 -0.211988 0
1.11383 -0.191914 0
1.1749 -0.278391 0
1.15717 -0.255232 0
1.14121 -0.233113 0
1.13406 -0.257943 0
1.11481 -0.237253 0
1.09741 -0.217376 0
1.08699 -0.237597 0
1.0668 -0.219173 0
1.04834 -0.201318 0
1.14121 -0.233113 0
1.12664 -0.211988 0
1.11383 -0.191914 0
1.09741 -0.217376 0
1.08143 -0.198235 0
1.06722 -0.179944 0
1.04834 -0.201318 0
1.03136 -0.184017 0
1.01611 -0.167371 0
1.19352 -0.210272 0
1.1848 -0.188438 0
1.1773 -0.167988 0
1.15553 -0.202 0
1.14497 -0.181447 0
1.13605 -0.162081 0
1.11383 -0.191914 0
1.1018 -0.172735 0
1.09136 -0.154506 0
1.1773 -0.167988 0
1.17 -0.148545 0
1.16367 -0.130109 0
1.13605 -0.162081 0
1.12725 -0.143525 0
1.11977 -0.125886 0
1.09136 -0.154506 0
1.08131 -0.137004 0
1.07262 -0.12027 0
1.11383 -0.191914 0
1.1018 -0.172735 0
1.09136 -0.154506 0
1.06722 -0.179944 0
1.05394 -0.162332 0
1.04228 -0.145505 0
1.01611 -0.167371 0
1.00189 -0.151263 0
0.989275 -0.13579 0
1.09136 -0.154506 0
1.08131 -0.137004 0
1.07262 -0.12027 0
1.04228 -0.145505 0
1.0312 -0.129255 0
1.02153 -0.113643 0
0.989275 -0.13579 0
0.977389 -0.120788 0
0.966925 -0.106315 0
1.08699 -0.237597 0
1.0668 -0.219173 0
1.04834 -0.201318 0
1.03455 -0.216326 0
1.01368 -0.200057 0
0.99447 -0.184186 0
0.977407 -0.195077 0
0.956067 -0.180774 0
0.936289 -0.166738 0
1.04834 -0.201318 0
1.03136 -0.184017 0
1.01611 -0.167371 0
0.99447 -0.184186 0
0.976731 -0.168703 0
0.96066 -0.15373 0
0.936289 -0.166738 0
0.917965 -0.152986 0
0.901247 -0.139626 0
0.977407 -0.195077 0
0.956067 -0.180774 0
0.936289 -0.166738 0
0.915382 -0.172759 0
0.8937 -0.160389 0
0.87354 -0.148206 0
0.848666 -0.150829 0
0.826867 -0.140249 0
0.806512 -0.129785 0
0.936289 -0.166738 0
0.917965 -0.152986 0
0.901247 -0.139626 0
0.87354 -0.148206 0
0.854797 -0.136216 0
0.837624 -0.124521 0
0.806512 -0.129785 0
0.78754 -0.119448 0
0.770083 -0.109333 0
1.01611 -0.167371 0
1.00189 -0.151263 0
0.989275 -0.13579 0
0.96066 -0.15373 0
0.945696 -0.139175 0
0.932306 -0.125131 0
0.901247 -0.139626 0
0.885693 -0.126588 0
0.871685 -0.113962 0
0.989275 -0.13579 0
0.977389 -0.120788 0
0.966925 -0.106315 0
0.932306 -0.125131 0
0.919771 -0.111463 0
0.908666 -0.0982274 0
0.871685 -0.113962 0
0.858631 -0.101635 0
0.84701 -0.0896606 0
0.901247 -0.139626 0
0.885693 -0.126588 0
0.871685 -0.113962 0
0.837624 -0.124521 0
0.821641 -0.113062 0
0.807185 -0.101926 0
0.770083 -0.109333 0
0.753828 -0.0993933 0
0.739068 -0.0897076 0
0.871685 -0.113962 0
0.858631 -0.101635 0
0.84701 -0.0896606 0
0.807185 -0.101926 0
0.793752 -0.0910174 0
0.781755 -0.0803884 0
0.739068 -0.0897076 0
0.725384 -0.0801975 0
0.713128 -0.0709097 0
1.16367 -0.130109 0
1.15744 -0.112428 0
1.15198 -0.0954367 0
1.11977 -0.125886 0
1.11239 -0.108866 0
1.10607 -0.0924956 0
1.07262 -0.12027 0
1.06425 -0.104088 0
1.05703 -0.0884729 0
1.15198 -0.0954367 0
1.1465 -0.0789459 0
1.14164 -0.06286 0
1.10607 -0.0924956 0
1.09977 -0.0765427 0
1.09433 -0.0609781 0
1.05703 -0.0884729 0
1.05003 -0.0732306 0
1.044 -0.0583339 0
1.07262 -0.12027 0
1.06425 -0.104088 0
1.05703 -0.0884729 0
1.02153 -0.113643 0
1.01237 -0.0984792 0
1.00442 -0.0837966 0
0.966925 -0.106315 0
0.957119 -0.0922144 0
0.948575 -0.0785188 0
1.05703 -0.0884729 0
1.05003 -0.0732306 0
1.044 -0.0583339 0
1.00442 -0.0837966 0
0.996876 -0.0694242 0
0.990378 -0.0553419 0
0.948575 -0.0785188 0
0.940586 -0.0650839 0
0.933708 -0.0518947 0
1.14164 -0.06286 0
1.1369 -0.0470096 0
1.1327 -0.0313047 0
1.09433 -0.0609781 0
1.08909 -0.0456198 0
1.08459 -0.0304069 0
1.044 -0.0583339 0
1.03834 -0.0436213 0
1.03354 -0.0290498 0
1.1327 -0.0313047 0
1.12861 -0.0156447 0
1.125 0 0
1.08459 -0.0304069 0
1.0803 -0.0152253 0
1.07666 0 0
1.03354 -0.0290498 0
1.02907 -0.014516 0
1.02539 0 0
1.044 -0.0583339 0
1.03834 -0.0436213 0
1.03354 -0.0290498 0
0.990378 -0.0553419 0
0.984401 -0.04141 0
0.97938 -0.0276012 0
0.933708 -0.0518947 0
0.927481 -0.0388351 0
0.922284 -0.0258799 0
1.03354 -0.0290498 0
1.02907 -0.014516 0
1.02539 0 0
0.97938 -0.0276012 0
0.974847 -0.0138161 0
0.971191 0 0
0.922284 -0.0258799 0
0.917695 -0.0129433 0
0.914062 0 0
0.966925 -0.106315 0
0.957119 -0.0922144 0
0.948575 -0.0785188 0
0.908666 -0.0982274 0
0.898346 -0.0852912 0
0.889323 -0.0726885 0
0.84701 -0.0896606 0
0.836281 -0.0779271 0
0.826876 -0.0664658 0
0.948575 -0.0785188 0
0.940586 -0.0650839 0
0.933708 -0.0518947 0
0.889323 -0.0726885 0
0.880989 -0.0602957 0
0.873822 -0.0481054 0
0.826876 -0.0664658 0
0.818278 -0.0551733 0
0.810893 -0.044044 0
0.84701 -0.0896606 0
0.836281 -0.0779271 0
0.826876 -0.0664658 0
0.781755 -0.0803884 0
0.770733 -0.0699416 0
0.761059 -0.0597099 0
0.713128 -0.0709097 0
0.701913 -0.0617621 0
0.692059 -0.0527827 0
0.826876 -0.0664658 0
0.818278 -0.0551733 0
0.810893 -0.044044 0
0.761059 -0.0597099 0
0.752287 -0.0496018 0
0.744769 -0.0396184 0
0.692059 -0.0527827 0
0.683188 -0.0438942 0
0.675603 -0.035097 0
0.933708 -0.0518947 0
0.927481 -0.0388351 0
0.922284 -0.0258799 0
0.873822 -0.0481054 0
0.86742 -0.0360157 0
0.862116 -0.0240098 0
0.810893 -0.044044 0
0.804373 -0.0329933 0
0.799007 -0.0220073 0
0.922284 -0.0258799 0
0.917695 -0.0129433 0
0.914062 0 0
0.862116 -0.0240098 0
0.857542 -0.0120124 0
0.854004 0 0
0.799007 -0.0220073 0
0.794466 -0.0110207 0
0.791016 0 0
0.810893 -0.044044 0
0.804373 -0.0329933 0
0.799007 -0.0220073 0
0.744769 -0.0396184 0
0.738201 -0.0296864 0
0.732836 -0.0198001 0
0.675603 -0.035097 0
0.66904 -0.0263307 0
0.663721 -0.0175904 0
0.799007 -0.0220073 0
0.794466 -0.0110207 0
0.791016 0 0
0.732836 -0.0198001 0
0.728389 -0.00990402 0
0.725098 0 0
0.663721 -0.0175904 0
0.659388 -0.00882952 0
0.65625 0 0
0.848666 -0.150829 0
0.826867 -0.140249 0
0.806512 -0.129785 0
0.777549 -0.1283 0
0.755721 -0.119426 0
0.735296 -0.110633 0
0.701895 -0.106167 0
0.680202 -0.098911 0
0.659854 -0.0917074 0
0.806512 -0.129785 0
0.78754 -0.119448 0
0.770083 -0.109333 0
0.735296 -0.110633 0
0.716204 -0.101924 0
0.69859 -0.0933876 0
0.659854 -0.0917074 0
0.640799 -0.0845598 0
0.623179 -0.0775467 0
0.701895 -0.106167 0
0.680202 -0.098911 0
0.659854 -0.0917074 0
0.621402 -0.0836234 0
0.599974 -0.0779242 0
0.57987 -0.072271 0
0.53439 -0.0617705 0
0.513609 -0.0575668 0
0.494107 -0.0534022 0
0.659854 -0.0917074 0
0.640799 -0.0845598 0
0.623179 -0.0775467 0
0.57987 -0.072271 0
0.561011 -0.0666568 0
0.54356 -0.0611524 0
0.494107 -0.0534022 0
0.475803 -0.0492646 0
0.458863 -0.045217 0
0.770083 -0.109333 0
0.753828 -0.0993933 0
0.739068 -0.0897076 0
0.69859 -0.0933876 0
0.682178 -0.0849805 0
0.667239 -0.0767752 0
0.623179 -0.0775467 0
0.606757 -0.0706295 0
0.591777 -0.0638734 0
0.739068 -0.0897076 0
0.725384 -0.0801975 0
0.713128 -0.0709097 0
0.667239 -0.0767752 0
0.653411 -0.0687025 0
0.641006 -0.0608052 0
0.591777 -0.0638734 0
0.577931 -0.0572187 0
0.565495 -0.0507023 0
0.623179 -0.0775467 0
0.606757 -0.0706295 0
0.591777 -0.0638734 0
0.54356 -0.0611524 0
0.527288 -0.05572 0
0.512434 -0.0504177 0
0.458863 -0.045217 0
0.44307 -0.0412224 0
0.428648 -0.0373316 0
0.591777 -0.0638734 0
0.577931 -0.0572187 0
0.565495 -0.0507023 0
0.512434 -0.0504177 0
0.498719 -0.0451923 0
0.486398 -0.0400758 0
0.428648 -0.0373316 0
0.415348 -0.0334979 0
0.403399 -0.0297498 0
0.53439 -0.0617705 0
0.513609 -0.0575668 0
0.494107 -0.0534022 0
0.437951 -0.0403759 0
0.418451 -0.0375842 0
0.400202 -0.0348339 0
0.324752 -0.0210658 0
0.308139 -0.0196059 0
0.292628 -0.0181802 0
0.494107 -0.0534022 0
0.475803 -0.0492646 0
0.458863 -0.045217 0
0.400202 -0.0348339 0
0.383074 -0.0321033 0
0.367255 -0.0294468 0
0.292628 -0.0181802 0
0.278092 -0.0167583 0
0.264701 -0.0153859 0
0.324752 -0.0210658 0
0.308139 -0.0196059 0
0.292628 -0.0181802 0
0.183537 -0.00620511 0
0.172736 -0.00574604 0
0.162752 -0.0053171 0
0 0 0
0 0 0
0 0 0
0.292628 -0.0181802 0
0.278092 -0.0167583 0
0.264701 -0.0153859 0
0.162752 -0.0053171 0
0.153369 -0.0048791 0
0.144804 -0.00447403 0
0 0 0
0 0 0
0 0 0
0.458863 -0.045217 0
0.44307 -0.0412224 0
0.428648 -0.0373316 0
0.367255 -0.0294468 0
0.352515 -0.0268276 0
0.339075 -0.0242884 0
0.264701 -0.0153859 0
0.252245 -0.0140277 0
0.240909 -0.0127202 0
0.428648 -0.0373316 0
0.415348 -0.0334979 0
0.403399 -0.0297498 0
0.339075 -0.0242884 0
0.326693 -0.0217884 0
0.315583 -0.019354 0
0.240909 -0.0127202 0
0.230479 -0.0114304 0
0.221135 -0.010183 0
0.264701 -0.0153859 0
0.252245 -0.0140277 0
0.240909 -0.0127202 0
0.144804 -0.00447403 0
0.136813 -0.00406195 0
0.129603 -0.00367915 0
0 0 0
0 0 0
0 0 0
0.240909 -0.0127202 0
0.230479 -0.0114304 0
0.221135 -0.010183 0
0.129603 -0.00367915 0
0.122943 -0.00329202 0
0.117025 -0.0029296 0
0 0 0
0 0 0
0 0 0
0.713128 -0.0709097 0
0.701913 -0.0617621 0
0.692059 -0.0527827 0
0.641006 -0.0608052 0
0.629691 -0.0530104 0
0.619749 -0.0453439 0
0.565495 -0.0507023 0
0.554182 -0.0442616 0
0.544245 -0.0379182 0
0.692059 -0.0527827 0
0.683188 -0.0438942 0
0.675603 -0.035097 0
0.619749 -0.0453439 0
0.610855 -0.0377355 0
0.603274 -0.0301881 0
0.544245 -0.0379182 0
0.535404 -0.0316104 0
0.527895 -0.0253376 0
0.565495 -0.0507023 0
0.554182 -0.0442616 0
0.544245 -0.0379182 0
0.486398 -0.0400758 0
0.475213 -0.0350123 0
0.465398 -0.0300213 0
0.403399 -0.0297498 0
0.39257 -0.0260394 0
0.383076 -0.0223818 0
0.544245 -0.0379182 0
0.535404 -0.0316104 0
0.527895 -0.0253376 0
0.465398 -0.0300213 0
0.456708 -0.0250466 0
0.449358 -0.0200855 0
0.383076 -0.0223818 0
0.374702 -0.0187274 0
0.367651 -0.0150723 0
0.675603 -0.035097 0
0.66904 -0.0263307 0
0.663721 -0.0175904 0
0.603274 -0.0301881 0
0.596774 -0.0226488 0
0.591556 -0.0151195 0
0.527895 -0.0253376 0
0.521512 -0.0190553 0
0.516438 -0.0127651 0
0.663721 -0.0175904 0
0.659388 -0.00882952 0
0.65625 0 0
0.591556 -0.0151195 0
0.587391 -0.00756108 0
0.584473 0 0
0.516438 -0.0127651 0
0.512467 -0.00643693 0
0.509766 0 0
0.527895 -0.0253376 0
0.521512 -0.0190553 0
0.516438 -0.0127651 0
0.449358 -0.0200855 0
0.443157 -0.015097 0
0.438281 -0.0100935 0
0.367651 -0.0150723 0
0.361742 -0.0113799 0
0.357144 -0.00765251 0
0.516438 -0.0127651 0
0.512467 -0.00643693 0
0.509766 0 0
0.438281 -0.0100935 0
0.434552 -0.00504767 0
0.432129 0 0
0.357144 -0.00765251 0
0.353702 -0.00388817 0
0.351562 0 0
0.403399 -0.0297498 0
0.39257 -0.0260394 0
0.383076 -0.0223818 0
0.315583 -0.019354 0
0.305525 -0.0169444 0
0.29672 -0.0145725 0
0.221135 -0.010183 0
0.212683 -0.00894712 0
0.205292 -0.00773424 0
0.383076 -0.0223818 0
0.374702 -0.0187274 0
0.367651 -0.0150723 0
0.29672 -0.0145725 0
0.288973 -0.0121971 0
0.282479 -0.00981546 0
0.205292 -0.00773424 0
0.198795 -0.00651511 0
0.193365 -0.00529504 0
0.221135 -0.010183 0
0.212683 -0.00894712 0
0.205292 -0.00773424 0
0.117025 -0.0029296 0
0.111643 -0.00256494 0
0.10698 -0.00221385 0
0 0 0
0 0 0
0 0 0
0.205292 -0.00773424 0
0.198795 -0.00651511 0
0.193365 -0.00529504 0
0.10698 -0.00221385 0
0.102846 -0.00185093 0
0.0994194 -0.00149546 0
0 0 0
0 0 0
0 0 0
0.367651 -0.0150723 0
0.361742 -0.0113799 0
0.357144 -0.00765251 0
0.282479 -0.00981546 0
0.277069 -0.00739001 0
0.272917 -0.00492694 0
0.193365 -0.00529504 0
0.188868 -0.00404559 0
0.185468 -0.00274521 0
0.357144 -0.00765251 0
0.353702 -0.00388817 0
0.351562 0 0
0.272917 -0.00492694 0
0.269865 -0.00241946 0
0.268066 0 0
0.185468 -0.00274521 0
0.183017 -0.00141403 0
0.181641 0 0
0.193365 -0.00529504 0
0.188868 -0.00404559 0
0.185468 -0.00274521 0
0.0994194 -0.00149546 0
0.0965585 -0.00113404 0
0.094491 -0.000744073 0
0 0 0
0 0 0
0 0 0
0.185468 -0.00274521 0
0.183017 -0.00141403 0
0.181641 0 0
0.094491 -0.000744073 0
0.0929905 -0.000295993 0
0.0922852 0 0
0 0 0
0 0 0
0 0 0
1.71302 -0.495175 0
1.67245 -0.509761 0
1.63023 -0.519669 0
1.66131 -0.445756 0
1.62352 -0.459295 0
1.5843 -0.468773 0
1.60454 -0.400692 0
1.57013 -0.413403 0
1.53429 -0.422629 0
1.63023 -0.519669 0
1.58817 -0.524342 0
1.54528 -0.524124 0
1.5843 -0.468773 0
1.54523 -0.474057 0
1.50548 -0.475115 0
1.53429 -0.422629 0
1.49872 -0.428361 0
1.46248 -0.430416 0
1.60454 -0.400692 0
1.57013 -0.413403 0
1.53429 -0.422629 0
1.54945 -0.360833 0
1.51767 -0.371687 0
1.48463 -0.379671 0
1.49023 -0.321698 0
1.45985 -0.331453 0
1.42836 -0.338762 0
1.53429 -0.422629 0
1.49872 -0.428361 0
1.46248 -0.430416 0
1.48463 -0.379671 0
1.45164 -0.384704 0
1.41799 -0.386716 0
1.42836 -0.338762 0
1.39698 -0.343591 0
1.36502 -0.345856 0
1.54528 -0.524124 0
1.50533 -0.519244 0
1.4658 -0.509725 0
1.50548 -0.475115 0
1.46821 -0.472094 0
1.43127 -0.465457 0
1.46248 -0.430416 0
1.42824 -0.429071 0
1.39423 -0.424419 0
1.4658 -0.509725 0
1.43028 -0.497063 0
1.39611 -0.481099 0
1.43127 -0.465457 0
1.39772 -0.455677 0
1.36536 -0.443057 0
1.39423 -0.424419 0
1.36286 -0.416894 0
1.33245 -0.406704 0
1.46248 -0.430416 0
1.42824 -0.429071 0
1.39423 -0.424419 0
1.41799 -0.386716 0
1.38577 -0.38585 0
1.35361 -0.382211 0
1.36502 -0.345856 0
1.33428 -0.345683 0
1.30362 -0.343154 0
1.39423 -0.424419 0
1.36286 -0.416894 0
1.33245 -0.406704 0
1.35361 -0.382211 0
1.32351 -0.376171 0
1.29413 -0.367854 0
1.30362 -0.343154 0
1.27471 -0.338526 0
1.24647 -0.331895 0
1.49023 -0.321698 0
1.45985 -0.331453 0
1.42836 -0.338762 0
1.42665 -0.285837 0
1.39773 -0.294762 0
1.36779 -0.301539 0
1.3619 -0.251283 0
1.33421 -0.259426 0
1.30554 -0.265718 0
1.42836 -0.338762 0
1.39698 -0.343591 0
1.36502 -0.345856 0
1.36779 -0.301539 0
1.33801 -0.306133 0
1.3077 -0.308504 0
1.30554 -0.265718 0
1.27701 -0.270115 0
1.24795 -0.272584 0
1.3619 -0.251283 0
1.33421 -0.259426 0
1.30554 -0.265718 0
1.29515 -0.218158 0
1.26833 -0.225385 0
1.24059 -0.23102 0
1.22494 -0.18616 0
1.19876 -0.19262 0
1.17167 -0.197731 0
1.30554 -0.265718 0
1.27701 -0.270115 0
1.24795 -0.272584 0
1.24059 -0.23102 0
1.21294 -0.235037 0
1.18477 -0.237408 0
1.17167 -0.197731 0
1.14469 -0.20147 0
1.1172 -0.203808 0
1.36502 -0.345856 0
1.33428 -0.345683 0
1.30362 -0.343154 0
1.3077 -0.308504 0
1.27845 -0.308741 0
1.24925 -0.306915 0
1.24795 -0.272584 0
1.21975 -0.273196 0
1.19156 -0.272005 0
1.30362 -0.343154 0
1.27471 -0.338526 0
1.24647 -0.331895 0
1.24925 -0.306915 0
1.22152 -0.303234 0
1.19435 -0.297775 0
1.19156 -0.272005 0
1.16461 -0.269183 0
1.13813 -0.264791 0
1.24795 -0.272584 0
1.21975 -0.273196 0
1.19156 -0.272005 0
1.18477 -0.237408 0
1.15732 -0.238204 0
1.12985 -0.237455 0
1.1172 -0.203808 0
1.09036 -0.204803 0
1.06348 -0.204475 0
1.19156 -0.272005 0
1.16461 -0.269183 0
1.13813 -0.264791 0
1.12985 -0.237455 0
1.10344 -0.235312 0
1.07744 -0.231804 0
1.06348 -0.204475 0
1.03752 -0.202941 0
1.01194 -0.200226 0
1.39611 -0.481099 0
1.36667 -0.463303 0
1.3393 -0.442988 0
1.36536 -0.443057 0
1.33709 -0.428205 0
1.31067 -0.411563 0
1.33245 -0.406704 0
1.3053 -0.394479 0
1.27972 -0.380431 0
1.3393 -0.442988 0
1.31586 -0.422067 0
1.29478 -0.400123 0
1.31067 -0.411563 0
1.28766 -0.393781 0
1.26682 -0.374899 0
1.27972 -0.380431 0
1.25692 -0.365062 0
1.23594 -0.348551 0
1.33245 -0.406704 0
1.3053 -0.394479 0
1.27972 -0.380431 0
1.29413 -0.367854 0
1.26745 -0.357724 0
1.24208 -0.345929 0
1.24647 -0.331895 0
1.22054 -0.32361 0
1.19583 -0.313831 0
1.27972 -0.380431 0
1.25692 -0.365062 0
1.23594 -0.348551 0
1.24208 -0.345929 0
1.21912 -0.332957 0
1.19782 -0.318929 0
1.19583 -0.313831 0
1.17323 -0.302921 0
1.15215 -0.290982 0
1.29478 -0.400123 0
1.27733 -0.378148 0
1.26258 -0.355691 0
1.26682 -0.374899 0
1.24923 -0.355438 0
1.23399 -0.335641 0
1.23594 -0.348551 0
1.21769 -0.3314 0
1.2015 -0.313765 0
1.26258 -0.355691 0
1.25025 -0.33391 0
1.24006 -0.312814 0
1.23399 -0.335641 0
1.22083 -0.315844 0
1.20987 -0.295985 0
1.2015 -0.313765 0
1.18721 -0.296003 0
1.1749 -0.278391 0
1.23594 -0.348551 0
1.21769 -0.3314 0
1.2015 -0.313765 0
1.19782 -0.318929 0
1.17907 -0.304246 0
1.16223 -0.289027 0
1.15215 -0.290982 0
1.13334 -0.278326 0
1.11626 -0.265083 0
1.2015 -0.313765 0
1.18721 -0.296003 0
1.1749 -0.278391 0
1.16223 -0.289027 0
1.1472 -0.273566 0
1.13406 -0.257943 0
1.11626 -0.265083 0
1.10078 -0.251464 0
1.08699 -0.237597 0
1.24647 -0.331895 0
1.22054 -0.32361 0
1.19583 -0.313831 0
1.19435 -0.297775 0
1.16914 -0.290837 0
1.14497 -0.282551 0
1.13813 -0.264791 0
1.11331 -0.259074 0
1.08941 -0.252142 0
1.19583 -0.313831 0
1.17323 -0.302921 0
1.15215 -0.290982 0
1.14497 -0.282551 0
1.12261 -0.273218 0
1.10158 -0.262914 0
1.08941 -0.252142 0
1.06711 -0.244245 0
1.04602 -0.235459 0
1.13813 -0.264791 0
1.11331 -0.259074 0
1.08941 -0.252142 0
1.07744 -0.231804 0
1.0529 -0.227145 0
1.02919 -0.221409 0
1.01194 -0.200226 0
0.987622 -0.196498 0
0.964066 -0.191823 0
1.08941 -0.252142 0
1.06711 -0.244245 0
1.04602 -0.235459 0
1.02919 -0.221409 0
1.0069 -0.21481 0
0.98572 -0.207402 0
0.964066 -0.191823 0
0.941772 -0.186373 0
0.9205 -0.180194 0
1.15215 -0.290982 0
1.13334 -0.278326 0
1.11626 -0.265083 0
1.10158 -0.262914 0
1.08252 -0.251928 0
1.06502 -0.240393 0
1.04602 -0.235459 0
1.02671 -0.22603 0
1.00884 -0.216071 0
1.11626 -0.265083 0
1.10078 -0.251464 0
1.08699 -0.237597 0
1.06502 -0.240393 0
1.049 -0.228511 0
1.03455 -0.216326 0
1.00884 -0.216071 0
0.99238 -0.205734 0
0.977407 -0.195077 0
1.04602 -0.235459 0
1.02671 -0.22603 0
1.00884 -0.216071 0
0.98572 -0.207402 0
0.966142 -0.199391 0
0.947902 -0.190867 0
0.9205 -0.180194 0
0.900666 -0.173458 0
0.882079 -0.166252 0
1.00884 -0.216071 0
0.99238 -0.205734 0
0.977407 -0.195077 0
0.947902 -0.190867 0
0.930951 -0.18197 0
0.915382 -0.172759 0
0.882079 -0.166252 0
0.86471 -0.158693 0
0.848666 -0.150829 0
1.22494 -0.18616 0
1.19876 -0.19262 0
1.17167 -0.197731 0
1.15228 -0.155866 0
1.12659 -0.161528 0
1.10003 -0.166046 0
1.07624 -0.126128 0
1.05093 -0.13107 0
1.02473 -0.135058 0
1.17167 -0.197731 0
1.14469 -0.20147 0
1.1172 -0.203808 0
1.10003 -0.166046 0
1.07356 -0.169396 0
1.0466 -0.171555 0
1.02473 -0.135058 0
0.998611 -0.138072 0
0.97199 -0.140089 0
1.07624 -0.126128 0
1.05093 -0.13107 0
1.02473 -0.135058 0
0.994529 -0.0973784 0
0.969704 -0.101552 0
0.943975 -0.10495 0
0.900529 -0.0696762 0
0.876712 -0.0730681 0
0.85189 -0.0758637 0
1.02473 -0.135058 0
0.998611 -0.138072 0
0.97199 -0.140089 0
0.943975 -0.10495 0
0.918268 -0.107555 0
0.892036 -0.109352 0
0.85189 -0.0758637 0
0.827024 -0.0780528 0
0.801567 -0.0796151 0
1.1172 -0.203808 0
1.09036 -0.204803 0
1.06348 -0.204475 0
1.0466 -0.171555 0
1.02018 -0.172571 0
0.993701 -0.172463 0
0.97199 -0.140089 0
0.945842 -0.141155 0
0.919609 -0.14128 0
1.06348 -0.204475 0
1.03752 -0.202941 0
1.01194 -0.200226 0
0.993701 -0.172463 0
0.968031 -0.171331 0
0.942688 -0.16919 0
0.919609 -0.14128 0
0.894098 -0.140549 0
0.868883 -0.138972 0
0.97199 -0.140089 0
0.945842 -0.141155 0
0.919609 -0.14128 0
0.892036 -0.109352 0
0.866195 -0.110379 0
0.840236 -0.110639 0
0.801567 -0.0796151 0
0.776405 -0.0805856 0
0.75107 -0.0809606 0
0.919609 -0.14128 0
0.894098 -0.140549 0
0.868883 -0.138972 0
0.840236 -0.110639 0
0.814912 -0.110206 0
0.789847 -0.109081 0
0.75107 -0.0809606 0
0.726277 -0.0808024 0
0.701693 -0.0801044 0
0.900529 -0.0696762 0
0.876712 -0.0730681 0
0.85189 -0.0758637 0
0.782605 -0.0441 0
0.761053 -0.0465967 0
0.738365 -0.0486756 0
0.6162 -0.0213278 0
0.599087 -0.0228427 0
0.580726 -0.0241207 0
0.85189 -0.0758637 0
0.827024 -0.0780528 0
0.801567 -0.0796151 0
0.738365 -0.0486756 0
0.715469 -0.0503314 0
0.691861 -0.0515426 0
0.580726 -0.0241207 0
0.561984 -0.0251694 0
0.542428 -0.0259644 0
0.6162 -0.0213278 0
0.599087 -0.0228427 0
0.580726 -0.0241207 0
0.367834 -0.00615738 0
0.35804 -0.0066714 0
0.347133 -0.00709372 0
0 0 0
0 0 0
0 0 0
0.580726 -0.0241207 0
0.561984 -0.0251694 0
0.542428 -0.0259644 0
0.347133 -0.00709372 0
0.335875 -0.0074465 0
0.323835 -0.00769933 0
0 0 0
0 0 0
0 0 0
0.801567 -0.0796151 0
0.776405 -0.0805856 0
0.75107 -0.0809606 0
0.691861 -0.0515426 0
0.66839 -0.0523402 0
0.644639 -0.052714 0
0.542428 -0.0259644 0
0.52281 -0.026537 0
0.502803 -0.0268646 0
0.75107 -0.0809606 0
0.726277 -0.0808024 0
0.701693 -0.0801044 0
0.644639 -0.052714 0
0.621289 -0.052717 0
0.598058 -0.0523344 0