# vtk DataFile Version 3.0
#This file was generated by the deal.II library on 2025/1/3 at 12:08:27
ASCII
DATASET UNSTRUCTURED_GRID

POINTS 34560 double
1.1 1.1 0
1.03125 1.09531 0
0.9625 1.09063 0
1.09375 1.03125 0
1.02539 1.02686 0
0.957031 1.02246 0
1.0875 0.9625 0
1.01953 0.958398 0
0.951563 0.954297 0
0.9625 1.09063 0
0.89375 1.08594 0
0.825 1.08125 0
0.957031 1.02246 0
0.888672 1.01807 0
0.820312 1.01367 0
0.951563 0.954297 0
0.883594 0.950195 0
0.815625 0.946094 0
1.0875 0.9625 0
1.01953 0.958398 0
0.951563 0.954297 0
1.08125 0.89375 0
1.01367 0.889941 0
0.946094 0.886133 0
1.075 0.825 0
1.00781 0.821484 0
0.940625 0.817969 0
0.951563 0.954297 0
0.883594 0.950195 0
0.815625 0.946094 0
0.946094 0.886133 0
0.878516 0.882324 0
0.810938 0.878516 0
0.940625 0.817969 0
0.873438 0.814453 0
0.80625 0.810937 0
0.825 1.08125 0
0.75625 1.07656 0
0.6875 1.07187 0
0.820312 1.01367 0
0.751953 1.00928 0
0.683594 1.00488 0
0.815625 0.946094 0
0.747656 0.941992 0
0.679688 0.937891 0
0.6875 1.07187 0
0.61875 1.06719 0
0.55 1.0625 0
0.683594 1.00488 0
0.615234 1.00049 0
0.546875 0.996094 0
0.679688 0.937891 0
0.611719 0.933789 0
0.54375 0.929688 0
0.815625 0.946094 0
0.747656 0.941992 0
0.679688 0.937891 0
0.810938 0.878516 0
0.743359 0.874707 0
0.675781 0.870898 0
0.80625 0.810937 0
0.739063 0.807422 0
0.671875 0.803906 0
0.679688 0.937891 0
0.611719 0.933789 0
0.54375 0.929688 0
0.675781 0.870898 0
0.608203 0.86709 0
0.540625 0.863281 0
0.671875 0.803906 0
0.604688 0.800391 0
0.5375 0.796875 0
1.075 0.825 0
1.00781 0.821484 0
0.940625 0.817969 0
1.06875 0.75625 0
1.00195 0.753027 0
0.935156 0.749805 0
1.0625 0.6875 0
0.996094 0.68457 0
0.929688 0.681641 0
0.940625 0.817969 0
0.873438 0.814453 0
0.80625 0.810937 0
0.935156 0.749805 0
0.868359 0.746582 0
0.801563 0.743359 0
0.929688 0.681641 0
0.863281 0.678711 0
0.796875 0.675781 0
1.0625 0.6875 0
0.996094 0.68457 0
0.929688 0.681641 0
1.05625 0.61875 0
0.990234 0.616113 0
0.924219 0.613477 0
1.05 0.55 0
0.984375 0.547656 0
0.91875 0.545313 0
0.929688 0.681641 0
0.863281 0.678711 0
0.796875 0.675781 0
0.924219 0.613477 0
0.858203 0.61084 0
0.792188 0.608203 0
0.91875 0.545313 0
0.853125 0.542969 0
0.7875 0.540625 0
0.80625 0.810937 0
0.739063 0.807422 0
0.671875 0.803906 0
0.801563 0.743359 0
0.734766 0.740137 0
0.667969 0.736914 0
0.796875 0.675781 0
0.730469 0.672852 0
0.664062 0.669922 0
0.671875 0.803906 0
0.604688 0.800391 0
0.5375 0.796875 0
0.667969 0.736914 0
0.601172 0.733691 0
0.534375 0.730469 0
0.664062 0.669922 0
0.597656 0.666992 0
0.53125 0.664062 0
0.796875 0.675781 0
0.730469 0.672852 0
0.664062 0.669922 0
0.792188 0.608203 0
0.726172 0.605566 0
0.660156 0.60293 0
0.7875 0.540625 0
0.721875 0.538281 0
0.65625 0.535937 0
0.664062 0.669922 0
0.597656 0.666992 0
0.53125 0.664062 0
0.660156 0.60293 0
0.594141 0.600293 0
0.528125 0.597656 0
0.65625 0.535937 0
0.590625 0.533594 0
0.525 0.53125 0
0.55 1.0625 0
0.48125 1.05781 0
0.4125 1.05313 0
0.546875 0.996094 0
0.478516 0.991699 0
0.410156 0.987305 0
0.54375 0.929688 0
0.475781 0.925586 0
0.407813 0.921484 0
0.4125 1.05313 0
0.34375 1.04844 0
0.275 1.04375 0
0.410156 0.987305 0
0.341797 0.98291 0
0.273438 0.978516 0
0.407813 0.921484 0
0.339844 0.917383 0
0.271875 0.913281 0
0.54375 0.929688 0
0.475781 0.925586 0
0.407813 0.921484 0
0.540625 0.863281 0
0.473047 0.859473 0
0.405469 0.855664 0
0.5375 0.796875 0
0.470313 0.793359 0
0.403125 0.789844 0
0.407813 0.921484 0
0.339844 0.917383 0
0.271875 0.913281 0
0.405469 0.855664 0
0.337891 0.851855 0
0.270313 0.848047 0
0.403125 0.789844 0
0.335938 0.786328 0
0.26875 0.782813 0
0.275 1.04375 0
0.20625 1.03906 0
0.1375 1.03437 0
0.273438 0.978516 0
0.205078 0.974121 0
0.136719 0.969727 0
0.271875 0.913281 0
0.203906 0.90918 0
0.135938 0.905078 0
0.1375 1.03437 0
0.06875 1.02969 0
0 1.025 0
0.136719 0.969727 0
0.0683594 0.965332 0
0 0.960937 0
0.135938 0.905078 0
0.0679688 0.900977 0
0 0.896875 0
0.271875 0.913281 0
0.203906 0.90918 0
0.135938 0.905078 0
0.270313 0.848047 0
0.202734 0.844238 0
0.135156 0.84043 0
0.26875 0.782813 0
0.201563 0.779297 0
0.134375 0.775781 0
0.135938 0.905078 0
0.0679688 0.900977 0
0 0.896875 0
0.135156 0.84043 0
0.0675781 0.836621 0
0 0.832812 0
0.134375 0.775781 0
0.0671875 0.772266 0
0 0.76875 0
0.5375 0.796875 0
0.470313 0.793359 0
0.403125 0.789844 0
0.534375 0.730469 0
0.467578 0.727246 0
0.400781 0.724023 0
0.53125 0.664062 0
0.464844 0.661133 0
0.398438 0.658203 0
0.403125 0.789844 0
0.335938 0.786328 0
0.26875 0.782813 0
0.400781 0.724023 0
0.333984 0.720801 0
0.267188 0.717578 0
0.398438 0.658203 0
0.332031 0.655273 0
0.265625 0.652344 0
0.53125 0.664062 0
0.464844 0.661133 0
0.398438 0.658203 0
0.528125 0.597656 0
0.462109 0.59502 0
0.396094 0.592383 0
0.525 0.53125 0
0.459375 0.528906 0
0.39375 0.526563 0
0.398438 0.658203 0
0.332031 0.655273 0
0.265625 0.652344 0
0.396094 0.592383 0
0.330078 0.589746 0
0.264062 0.587109 0
0.39375 0.526563 0
0.328125 0.524219 0
0.2625 0.521875 0
0.26875 0.782813 0
0.201563 0.779297 0
0.134375 0.775781 0
0.267188 0.717578 0
0.200391 0.714355 0
0.133594 0.711133 0
0.265625 0.652344 0
0.199219 0.649414 0
0.132812 0.646484 0
0.134375 0.775781 0
0.0671875 0.772266 0
0 0.76875 0
0.133594 0.711133 0
0.0667969 0.70791 0
0 0.704687 0
0.132812 0.646484 0
0.0664062 0.643555 0
0 0.640625 0
0.265625 0.652344 0
0.199219 0.649414 0
0.132812 0.646484 0
0.264062 0.587109 0
0.198047 0.584473 0
0.132031 0.581836 0
0.2625 0.521875 0
0.196875 0.519531 0
0.13125 0.517187 0
0.132812 0.646484 0
0.0664062 0.643555 0
0 0.640625 0
0.132031 0.581836 0
0.0660156 0.579199 0
0 0.576562 0
0.13125 0.517187 0
0.065625 0.514844 0
0 0.5125 0
1.05 0.55 0
0.984375 0.547656 0
0.91875 0.545313 0
1.04375 0.48125 0
0.978516 0.479199 0
0.913281 0.477148 0
1.0375 0.4125 0
0.972656 0.410742 0
0.907813 0.408984 0
0.91875 0.545313 0
0.853125 0.542969 0
0.7875 0.540625 0
0.913281 0.477148 0
0.848047 0.475098 0
0.782813 0.473047 0
0.907813 0.408984 0
0.842969 0.407227 0
0.778125 0.405469 0
1.0375 0.4125 0
0.972656 0.410742 0
0.907813 0.408984 0
1.03125 0.34375 0
0.966797 0.342285 0
0.902344 0.34082 0
1.025 0.275 0
0.960937 0.273828 0
0.896875 0.272656 0
0.907813 0.408984 0
0.842969 0.407227 0
0.778125 0.405469 0
0.902344 0.34082 0
0.837891 0.339355 0
0.773438 0.337891 0
0.896875 0.272656 0
0.832812 0.271484 0
0.76875 0.270313 0
0.7875 0.540625 0
0.721875 0.538281 0
0.65625 0.535937 0
0.782813 0.473047 0
0.717578 0.470996 0
0.652344 0.468945 0
0.778125 0.405469 0
0.713281 0.403711 0
0.648438 0.401953 0
0.65625 0.535937 0
0.590625 0.533594 0
0.525 0.53125 0
0.652344 0.468945 0
0.587109 0.466895 0
0.521875 0.464844 0
0.648438 0.401953 0
0.583594 0.400195 0
0.51875 0.398438 0
0.778125 0.405469 0
0.713281 0.403711 0
0.648438 0.401953 0
0.773438 0.337891 0
0.708984 0.336426 0
0.644531 0.334961 0
0.76875 0.270313 0
0.704687 0.269141 0
0.640625 0.267969 0
0.648438 0.401953 0
0.583594 0.400195 0
0.51875 0.398438 0
0.644531 0.334961 0
0.580078 0.333496 0
0.515625 0.332031 0
0.640625 0.267969 0
0.576562 0.266797 0
0.5125 0.265625 0
1.025 0.275 0
0.960937 0.273828 0
0.896875 0.272656 0
1.01875 0.20625 0
0.955078 0.205371 0
0.891406 0.204492 0
1.0125 0.1375 0
0.949219 0.136914 0
0.885937 0.136328 0
0.896875 0.272656 0
0.832812 0.271484 0
0.76875 0.270313 0
0.891406 0.204492 0
0.827734 0.203613 0
0.764062 0.202734 0
0.885937 0.136328 0
0.822656 0.135742 0
0.759375 0.135156 0
1.0125 0.1375 0
0.949219 0.136914 0
0.885937 0.136328 0
1.00625 0.06875 0
0.943359 0.068457 0
0.880469 0.0681641 0
1 0 0
0.9375 0 0
0.875 0 0
0.885937 0.136328 0
0.822656 0.135742 0
0.759375 0.135156 0
0.880469 0.0681641 0
0.817578 0.0678711 0
0.754687 0.0675781 0
0.875 0 0
0.8125 0 0
0.75 0 0
0.76875 0.270313 0
0.704687 0.269141 0
0.640625 0.267969 0
0.764062 0.202734 0
0.700391 0.201855 0
0.636719 0.200977 0
0.759375 0.135156 0
0.696094 0.13457 0
0.632812 0.133984 0
0.640625 0.267969 0
0.576562 0.266797 0
0.5125 0.265625 0
0.636719 0.200977 0
0.573047 0.200098 0
0.509375 0.199219 0
0.632812 0.133984 0
0.569531 0.133398 0
0.50625 0.132812 0
0.759375 0.135156 0
0.696094 0.13457 0
0.632812 0.133984 0
0.754687 0.0675781 0
0.691797 0.0672852 0
0.628906 0.0669922 0
0.75 0 0
0.6875 0 0
0.625 0 0
0.632812 0.133984 0
0.569531 0.133398 0
0.50625 0.132812 0
0.628906 0.0669922 0
0.566016 0.0666992 0
0.503125 0.0664062 0
0.625 0 0
0.5625 0 0
0.5 0 0
0.525 0.53125 0
0.459375 0.528906 0
0.39375 0.526563 0
0.521875 0.464844 0
0.456641 0.462793 0
0.391406 0.460742 0
0.51875 0.398438 0
0.453906 0.39668 0
0.389063 0.394922 0
0.39375 0.526563 0
0.328125 0.524219 0
0.2625 0.521875 0
0.391406 0.460742 0
0.326172 0.458691 0
0.260938 0.456641 0
0.389063 0.394922 0
0.324219 0.393164 0
0.259375 0.391406 0
0.51875 0.398438 0
0.453906 0.39668 0
0.389063 0.394922 0
0.515625 0.332031 0
0.451172 0.330566 0
0.386719 0.329102 0
0.5125 0.265625 0
0.448437 0.264453 0
0.384375 0.263281 0
0.389063 0.394922 0
0.324219 0.393164 0
0.259375 0.391406 0
0.386719 0.329102 0
0.322266 0.327637 0
0.257812 0.326172 0
0.384375 0.263281 0
0.320312 0.262109 0
0.25625 0.260937 0
0.2625 0.521875 0
0.196875 0.519531 0
0.13125 0.517187 0
0.260938 0.456641 0
0.195703 0.45459 0
0.130469 0.452539 0
0.259375 0.391406 0
0.194531 0.389648 0
0.129688 0.387891 0
0.13125 0.517187 0
0.065625 0.514844 0
0 0.5125 0
0.130469 0.452539 0
0.0652344 0.450488 0
0 0.448437 0
0.129688 0.387891 0
0.0648438 0.386133 0
0 0.384375 0
0.259375 0.391406 0
0.194531 0.389648 0
0.129688 0.387891 0
0.257812 0.326172 0
0.193359 0.324707 0
0.128906 0.323242 0
0.25625 0.260937 0
0.192187 0.259766 0
0.128125 0.258594 0
0.129688 0.387891 0
0.0648438 0.386133 0
0 0.384375 0
0.128906 0.323242 0
0.0644531 0.321777 0
0 0.320312 0
0.128125 0.258594 0
0.0640625 0.257422 0
0 0.25625 0
0.5125 0.265625 0
0.448437 0.264453 0
0.384375 0.263281 0
0.509375 0.199219 0
0.445703 0.19834 0
0.382031 0.197461 0
0.50625 0.132812 0
0.442969 0.132227 0
0.379688 0.131641 0
0.384375 0.263281 0
0.320312 0.262109 0
0.25625 0.260937 0
0.382031 0.197461 0
0.318359 0.196582 0
0.254687 0.195703 0
[...]
POINT_DATA 34560
VECTORS v double
1.23871 -0.299945 0
1.22436 -0.271422 0
1.21187 -0.24549 0
1.20743 -0.282856 0
1.19102 -0.257627 0
1.17687 -0.233764 0
1.17132 -0.265175 0
1.15356 -0.242344 0
1.13769 -0.220527 0
1.21187 -0.24549 0
1.20091 -0.220751 0
1.19154 -0.197938 0
1.17687 -0.233764 0
1.16393 -0.21107 0
1.15301 -0.189802 0
1.13769 -0.220527 0
1.12329 -0.199717 0
1.11072 -0.17998 0
1.17132 -0.265175 0
1.15356 -0.242344 0
1.13769 -0.220527 0
1.12931 -0.244866 0
1.11021 -0.224594 0
1.09305 -0.20509 0
1.08112 -0.224847 0
1.06125 -0.206897 0
1.04318 -0.189464 0
1.13769 -0.220527 0
1.12329 -0.199717 0
1.11072 -0.17998 0
1.09305 -0.20509 0
1.07737 -0.186322 0
1.06353 -0.168408 0
1.04318 -0.189464 0
1.02664 -0.172573 0
1.01186 -0.156331 0
1.19154 -0.197938 0
1.18289 -0.176405 0
1.17555 -0.156351 0
1.15301 -0.189802 0
1.14263 -0.169607 0
1.13394 -0.150676 0
1.11072 -0.17998 0
1.09897 -0.161201 0
1.08886 -0.143436 0
1.17555 -0.156351 0
1.16843 -0.13743 0
1.16233 -0.119636 0
1.13394 -0.150676 0
1.12541 -0.132671 0
1.11821 -0.115686 0
1.08886 -0.143436 0
1.07915 -0.126499 0
1.07082 -0.110423 0
1.11072 -0.17998 0
1.09897 -0.161201 0
1.08886 -0.143436 0
1.06353 -0.168408 0
1.05064 -0.151223 0
1.03939 -0.134871 0
1.01186 -0.156331 0
0.998136 -0.140664 0
0.986015 -0.125669 0
1.08886 -0.143436 0
1.07915 -0.126499 0
1.07082 -0.110423 0
1.03939 -0.134871 0
1.02875 -0.119186 0
1.01949 -0.104219 0
0.986015 -0.125669 0
0.974638 -0.111221 0
0.964657 -0.0973722 0
1.08112 -0.224847 0
1.06125 -0.206897 0
1.04318 -0.189464 0
1.02763 -0.204058 0
1.00723 -0.1883 0
0.988548 -0.172882 0
0.96947 -0.183458 0
0.948752 -0.169679 0
0.929624 -0.156109 0
1.04318 -0.189464 0
1.02664 -0.172573 0
1.01186 -0.156331 0
0.988548 -0.172882 0
0.971361 -0.157835 0
0.955865 -0.143283 0
0.929624 -0.156109 0
0.911963 -0.142801 0
0.895915 -0.129865 0
0.96947 -0.183458 0
0.948752 -0.169679 0
0.929624 -0.156109 0
0.906524 -0.161968 0
0.885599 -0.15011 0
0.866198 -0.138384 0
0.838967 -0.140976 0
0.818044 -0.13088 0
0.798547 -0.12085 0
0.929624 -0.156109 0
0.911963 -0.142801 0
0.895915 -0.129865 0
0.866198 -0.138384 0
0.848216 -0.126829 0
0.831795 -0.115547 0
0.798547 -0.12085 0
0.780421 -0.110927 0
0.763785 -0.101206 0
1.01186 -0.156331 0
0.998136 -0.140664 0
0.986015 -0.125669 0
0.955865 -0.143283 0
0.941488 -0.129174 0
0.928677 -0.115601 0
0.895915 -0.129865 0
0.881036 -0.117268 0
0.867684 -0.105097 0
0.986015 -0.125669 0
0.974638 -0.111221 0
0.964657 -0.0973722 0
0.928677 -0.115601 0
0.916726 -0.102468 0
0.906168 -0.0898282 0
0.867684 -0.105097 0
0.855286 -0.0932789 0
0.844275 -0.0818624 0
0.895915 -0.129865 0
0.881036 -0.117268 0
0.867684 -0.105097 0
0.831795 -0.115547 0
0.816563 -0.104513 0
0.802829 -0.093809 0
0.763785 -0.101206 0
0.748346 -0.0916683 0
0.734367 -0.0823874 0
0.867684 -0.105097 0
0.855286 -0.0932789 0
0.844275 -0.0818624 0
0.802829 -0.093809 0
0.790115 -0.0833747 0
0.778787 -0.0732597 0
0.734367 -0.0823874 0
0.721457 -0.0733151 0
0.709922 -0.0644945 0
1.16233 -0.119636 0
1.15632 -0.10273 0
1.15109 -0.0866482 0
1.11821 -0.115686 0
1.11111 -0.099447 0
1.10506 -0.0839756 0
1.07082 -0.110423 0
1.06279 -0.0950159 0
1.05589 -0.0802823 0
1.15109 -0.0866482 0
1.14585 -0.071213 0
1.1412 -0.0563382 0
1.10506 -0.0839756 0
1.09904 -0.0690623 0
1.09384 -0.0546765 0
1.05589 -0.0802823 0
1.04921 -0.0660517 0
1.04345 -0.0522944 0
1.07082 -0.110423 0
1.06279 -0.0950159 0
1.05589 -0.0802823 0
1.01949 -0.104219 0
1.01074 -0.0898099 0
1.00316 -0.0759795 0
0.964657 -0.0973722 0
0.955317 -0.0839975 0
0.947185 -0.0711165 0
1.05589 -0.0802823 0
1.04921 -0.0660517 0
1.04345 -0.0522944 0
1.00316 -0.0759795 0
0.995973 -0.0625797 0
0.989776 -0.049588 0
0.947185 -0.0711165 0
0.939598 -0.0586082 0
0.933051 -0.0464543 0
1.1412 -0.0563382 0
1.13664 -0.0418742 0
1.13257 -0.0277311 0
1.09384 -0.0546765 0
1.08881 -0.0406638 0
1.08445 -0.0269579 0
1.04345 -0.0522944 0
1.03802 -0.0388766 0
1.03337 -0.0257501 0
1.13257 -0.0277311 0
1.12858 -0.0137902 0
1.125 0 0
1.08445 -0.0269579 0
1.08027 -0.0134363 0
1.07666 0 0
1.03337 -0.0257501 0
1.02904 -0.0128064 0
1.02539 0 0
1.04345 -0.0522944 0
1.03802 -0.0388766 0
1.03337 -0.0257501 0
0.989776 -0.049588 0
0.984057 -0.0368911 0
0.979206 -0.0244577 0
0.933051 -0.0464543 0
0.927106 -0.0345637 0
0.922094 -0.0229082 0
1.03337 -0.0257501 0
1.02904 -0.0128064 0
1.02539 0 0
0.979206 -0.0244577 0
0.974811 -0.0121865 0
0.971191 0 0
0.922094 -0.0229082 0
0.917654 -0.011403 0
0.914062 0 0
0.964657 -0.0973722 0
0.955317 -0.0839975 0
0.947185 -0.0711165 0
0.906168 -0.0898282 0
0.896373 -0.077579 0
0.88781 -0.0657445 0
0.844275 -0.0818624 0
0.834128 -0.070769 0
0.825232 -0.0600208 0
0.947185 -0.0711165 0
0.939598 -0.0586082 0
0.933051 -0.0464543 0
0.88781 -0.0657445 0
0.879917 -0.0542236 0
0.873111 -0.0430053 0
0.825232 -0.0600208 0
0.817115 -0.0495374 0
0.810124 -0.0393094 0
0.844275 -0.0818624 0
0.834128 -0.070769 0
0.825232 -0.0600208 0
0.778787 -0.0732597 0
0.768402 -0.0633981 0
0.759285 -0.0538158 0
0.709922 -0.0644945 0
0.699394 -0.0558731 0
0.690145 -0.047474 0
0.825232 -0.0600208 0
0.817115 -0.0495374 0
0.810124 -0.0393094 0
0.759285 -0.0538158 0
0.751035 -0.044445 0
0.743943 -0.0352836 0
0.690145 -0.047474 0
0.681837 -0.0392443 0
0.674713 -0.0311828 0
0.933051 -0.0464543 0
0.927106 -0.0345637 0
0.922094 -0.0229082 0
0.873111 -0.0430053 0
0.867017 -0.0320111 0
0.861915 -0.0212222 0
0.810124 -0.0393094 0
0.803937 -0.0292737 0
0.79879 -0.0194153 0
0.922094 -0.0229082 0
0.917654 -0.011403 0
0.914062 0 0
0.861915 -0.0212222 0
0.857499 -0.0105668 0
0.854004 0 0
0.79879 -0.0194153 0
0.794418 -0.00967454 0
0.791016 0 0
0.810124 -0.0393094 0
0.803937 -0.0292737 0
0.79879 -0.0194153 0
0.743943 -0.0352836 0
0.737733 -0.0262783 0
0.732607 -0.0174226 0
0.674713 -0.0311828 0
0.668535 -0.0232478 0
0.663475 -0.0154343 0
0.79879 -0.0194153 0
0.794418 -0.00967454 0
0.791016 0 0
0.732607 -0.0174226 0
0.728339 -0.00866848 0
0.725098 0 0
0.663475 -0.0154343 0
0.659333 -0.00770474 0
0.65625 0 0
0.838967 -0.140976 0
0.818044 -0.13088 0
0.798547 -0.12085 0
0.767084 -0.119534 0
0.746242 -0.111091 0
0.726765 -0.102689 0
0.69067 -0.098579 0
0.670073 -0.0916855 0
0.650764 -0.0848176 0
0.798547 -0.12085 0
0.780421 -0.110927 0
0.763785 -0.101206 0
0.726765 -0.102689 0
0.708594 -0.0943587 0
0.691863 -0.0861854 0
0.650764 -0.0848176 0
0.632708 -0.0780015 0
0.616034 -0.0713127 0
0.69067 -0.098579 0
0.670073 -0.0916855 0
0.650764 -0.0848176 0
0.609381 -0.0773763 0
0.589158 -0.0719511 0
0.570191 -0.0665574 0
0.521602 -0.0569264 0
0.502109 -0.0529095 0
0.483829 -0.0489278 0
0.650764 -0.0848176 0
0.632708 -0.0780015 0
0.616034 -0.0713127 0
0.570191 -0.0665574 0
0.552417 -0.0612095 0
0.535985 -0.0559743 0
0.483829 -0.0489278 0
0.466696 -0.0449879 0
0.450855 -0.0411483 0
0.763785 -0.101206 0
0.748346 -0.0916683 0
0.734367 -0.0823874 0
0.691863 -0.0861854 0
0.676322 -0.0781506 0
0.662211 -0.070319 0
0.616034 -0.0713127 0
0.600537 -0.0647314 0
0.586431 -0.058314 0
0.734367 -0.0823874 0
0.721457 -0.0733151 0
0.709922 -0.0644945 0
0.662211 -0.070319 0
0.649204 -0.0626453 0
0.637565 -0.0551677 0
0.586431 -0.058314 0
0.573448 -0.0520173 0
0.561819 -0.0458726 0
0.616034 -0.0713127 0
0.600537 -0.0647314 0
0.586431 -0.058314 0
0.535985 -0.0559743 0
0.520702 -0.0508287 0
0.506775 -0.0458207 0
0.450855 -0.0411483 0
0.436125 -0.0373837 0
0.422693 -0.0337343 0
0.586431 -0.058314 0
0.573448 -0.0520173 0
0.561819 -0.0458726 0
0.506775 -0.0458207 0
0.49397 -0.0409071 0
0.482495 -0.036112 0
0.422693 -0.0337343 0
0.410354 -0.030158 0
0.399294 -0.0266744 0
0.521602 -0.0569264 0
0.502109 -0.0529095 0
0.483829 -0.0489278 0
0.424579 -0.0370168 0
0.406415 -0.0343408 0
0.389448 -0.0317061 0
0.31184 -0.0191982 0
0.296509 -0.0177974 0
0.282241 -0.0164302 0
0.483829 -0.0489278 0
0.466696 -0.0449879 0
0.450855 -0.0411483 0
0.389448 -0.0317061 0
0.37356 -0.0291073 0
0.358914 -0.0265939 0
0.282241 -0.0164302 0
0.268917 -0.0150777 0
0.256678 -0.0137818 0
0.31184 -0.0191982 0
0.296509 -0.0177974 0
0.282241 -0.0164302 0
0.173844 -0.00559968 0
0.164032 -0.00516314 0
0.154999 -0.00475414 0
0 0 0
0 0 0
0 0 0
0.282241 -0.0164302 0
0.268917 -0.0150777 0
0.256678 -0.0137818 0
0.154999 -0.00475414 0
0.146547 -0.00434155 0
0.138857 -0.00396188 0
0 0 0
0 0 0
0 0 0
0.450855 -0.0411483 0
0.436125 -0.0373837 0
0.422693 -0.0337343 0
0.358914 -0.0265939 0
0.345307 -0.0241389 0
0.332921 -0.0217754 0
0.256678 -0.0137818 0
0.245333 -0.0125149 0
0.235031 -0.0113062 0
0.422693 -0.0337343 0
0.410354 -0.030158 0
0.399294 -0.0266744 0
0.332921 -0.0217754 0
0.321549 -0.0194653 0
0.311364 -0.0172258 0
0.235031 -0.0113062 0
0.225584 -0.0101253 0
0.217133 -0.00898959 0
0.256678 -0.0137818 0
0.245333 -0.0125149 0
0.235031 -0.0113062 0
0.138857 -0.00396188 0
0.131714 -0.00358238 0
0.125282 -0.00323273 0
0 0 0
0 0 0
0 0 0
0.235031 -0.0113062 0
0.225584 -0.0101253 0
0.217133 -0.00898959 0
0.125282 -0.00323273 0
0.119362 -0.00288355 0
0.114105 -0.00255788 0
0 0 0
0 0 0
0 0 0
0.709922 -0.0644945 0
0.699394 -0.0558731 0
0.690145 -0.047474 0
0.637565 -0.0551677 0
0.626983 -0.0478381 0
0.617693 -0.0406792 0
0.561819 -0.0458726 0
0.551281 -0.0398354 0
0.542037 -0.033925 0
0.690145 -0.047474 0
0.681837 -0.0392443 0
0.674713 -0.0311828 0
0.617693 -0.0406792 0
0.609402 -0.033645 0
0.602319 -0.026739 0
0.542037 -0.033925 0
0.533838 -0.0281026 0
0.526864 -0.022371 0
0.561819 -0.0458726 0
0.551281 -0.0398354 0
0.542037 -0.033925 0
0.482495 -0.036112 0
0.472123 -0.0313909 0
0.46304 -0.0267592 0
0.399294 -0.0266744 0
0.389313 -0.0232399 0
0.380582 -0.0198649 0
0.542037 -0.033925 0
0.533838 -0.0281026 0
0.526864 -0.022371 0
0.46304 -0.0267592 0
0.455028 -0.0221803 0
0.448248 -0.0176569 0
0.380582 -0.0198649 0
0.372915 -0.0165144 0
0.366462 -0.0131904 0
0.674713 -0.0311828 0
0.668535 -0.0232478 0
0.663475 -0.0154343 0
0.602319 -0.026739 0
0.596232 -0.0199273 0
0.591295 -0.0132125 0
0.526864 -0.022371 0
0.520925 -0.0167058 0
0.516156 -0.0111098 0
0.663475 -0.0154343 0
0.659333 -0.00770474 0
0.65625 0 0
0.591295 -0.0132125 0
0.587333 -0.00656575 0
0.584473 0 0
0.516156 -0.0111098 0
0.512402 -0.00556553 0
0.509766 0 0
0.526864 -0.022371 0
0.520925 -0.0167058 0
0.516156 -0.0111098 0
0.448248 -0.0176569 0
0.442524 -0.0131686 0
0.437981 -0.00873025 0
0.366462 -0.0131904 0
0.361057 -0.00987642 0
0.356818 -0.0065799 0
0.516156 -0.0111098 0
0.512402 -0.00556553 0
0.509766 0 0
0.437981 -0.00873025 0
0.434482 -0.00432954 0
0.432129 0 0
0.356818 -0.0065799 0
0.353624 -0.00331365 0
0.351562 0 0
0.399294 -0.0266744 0
0.389313 -0.0232399 0
0.380582 -0.0198649 0
0.311364 -0.0172258 0
0.302179 -0.0150179 0
0.294155 -0.0128481 0
0.217133 -0.00898959 0
0.209513 -0.00786929 0
0.202861 -0.00677034 0
0.380582 -0.0198649 0
0.372915 -0.0165144 0
0.366462 -0.0131904 0
0.294155 -0.0128481 0
0.287126 -0.0106848 0
0.281241 -0.00852968 0
0.202861 -0.00677034 0
0.197038 -0.00566891 0
0.192179 -0.00457097 0
0.217133 -0.00898959 0
0.209513 -0.00786929 0
0.202861 -0.00677034 0
0.114105 -0.00255788 0
0.109341 -0.002232 0
0.105216 -0.00191727 0
0 0 0
0 0 0
0 0 0
0.202861 -0.00677034 0
0.197038 -0.00566891 0
0.192179 -0.00457097 0
0.105216 -0.00191727 0
0.101576 -0.00159327 0
0.0985629 -0.00127596 0
0 0 0
0 0 0
0 0 0
0.366462 -0.0131904 0
0.361057 -0.00987642 0
0.356818 -0.0065799 0
0.281241 -0.00852968 0
0.276348 -0.0063624 0
0.272571 -0.0041934 0
0.192179 -0.00457097 0
0.18817 -0.00345912 0
0.185128 -0.00231841 0
0.356818 -0.0065799 0
0.353624 -0.00331365 0
0.351562 0 0
0.272571 -0.0041934 0
0.269779 -0.00203124 0
0.268066 0 0
0.185128 -0.00231841 0
0.182928 -0.00117741 0
0.181641 0 0
0.192179 -0.00457097 0
0.18817 -0.00345912 0
0.185128 -0.00231841 0
0.0985629 -0.00127596 0
0.0960622 -0.000957014 0
0.0942491 -0.000617712 0
0 0 0
0 0 0
0 0 0
0.185128 -0.00231841 0
0.182928 -0.00117741 0
0.181641 0 0
0.0942491 -0.000617712 0
0.0929359 -0.000237219 0
0.0922852 0 0
0 0 0
0 0 0
0 0 0
1.72726 -0.454424 0
1.68546 -0.474008 0
1.64172 -0.488075 0
1.66818 -0.403029 0
1.62984 -0.42143 0
1.58977 -0.435126 0
1.60395 -0.357037 0
1.56967 -0.374471 0
1.5338 -0.387871 0
1.64172 -0.488075 0
1.59816 -0.496302 0
1.55385 -0.499052 0
1.58977 -0.435126 0
1.54986 -0.444083 0
1.50919 -0.44827 0
1.5338 -0.387871 0
1.49804 -0.397239 0
1.46152 -0.402453 0
1.60395 -0.357037 0
1.56967 -0.374471 0
1.5338 -0.387871 0
1.54177 -0.317345 0
1.51078 -0.332686 0
1.4783 -0.344664 0
1.47554 -0.278931 0
1.44659 -0.292985 0
1.41624 -0.304136 0
1.5338 -0.387871 0
1.49804 -0.397239 0
1.46152 -0.402453 0
1.4783 -0.344664 0
1.44569 -0.353242 0
1.41226 -0.358355 0
1.41624 -0.304136 0
1.38579 -0.312382 0
1.35457 -0.317655 0
1.55385 -0.499052 0
1.5124 -0.496742 0
1.47154 -0.489346 0
1.50919 -0.44827 0
1.47102 -0.447922 0
1.43324 -0.443518 0
1.46152 -0.402453 0
1.4269 -0.403832 0
1.39251 -0.401502 0
1.47154 -0.489346 0
1.43485 -0.478517 0
1.39951 -0.463979 0
1.43324 -0.443518 0
1.39894 -0.435677 0
1.36581 -0.42464 0
1.39251 -0.401502 0
1.36075 -0.395975 0
1.32997 -0.38745 0
1.46152 -0.402453 0
1.4269 -0.403832 0
1.39251 -0.401502 0
1.41226 -0.358355 0
1.38016 -0.360186 0
1.34804 -0.358872 0
1.35457 -0.317655 0
1.32444 -0.320124 0
1.29427 -0.319886 0
1.39251 -0.401502 0
1.36075 -0.395975 0
1.32997 -0.38745 0
1.34804 -0.358872 0
1.31796 -0.35483 0
1.28858 -0.348205 0
1.29427 -0.319886 0
1.2658 -0.317248 0
1.23793 -0.312317 0
1.47554 -0.278931 0
1.44659 -0.292985 0
1.41624 -0.304136 0
1.40548 -0.244657 0
1.3786 -0.257597 0
1.35037 -0.267982 0
1.33444 -0.212243 0
1.30939 -0.224096 0
1.28297 -0.23374 0
1.41624 -0.304136 0
1.38579 -0.312382 0
1.35457 -0.317655 0
1.35037 -0.267982 0
1.32205 -0.275805 0
1.29297 -0.281033 0
1.28297 -0.23374 0
1.2564 -0.24115 0
1.22902 -0.246303 0
1.33444 -0.212243 0
1.30939 -0.224096 0
1.28297 -0.23374 0
1.26156 -0.182185 0
1.23794 -0.192756 0
1.21299 -0.201426 0
1.18572 -0.153653 0
1.16319 -0.163093 0
1.13936 -0.17091 0
1.28297 -0.23374 0
1.2564 -0.24115 0
1.22902 -0.246303 0
1.21299 -0.201426 0
1.18781 -0.208179 0
1.1618 -0.212997 0
1.13936 -0.17091 0
1.11528 -0.177094 0
1.09039 -0.181623 0
1.35457 -0.317655 0
1.32444 -0.320124 0
1.29427 -0.319886 0
1.29297 -0.281033 0
1.26477 -0.283798 0
1.23646 -0.284177 0
1.22902 -0.246303 0
1.20231 -0.249299 0
1.17541 -0.250202 0
1.29427 -0.319886 0
1.2658 -0.317248 0
1.23793 -0.312317 0
1.23646 -0.284177 0
1.20953 -0.28242 0
1.18306 -0.278616 0
1.17541 -0.250202 0
1.14961 -0.249216 0
1.12415 -0.246414 0
1.22902 -0.246303 0
1.20231 -0.249299 0
1.17541 -0.250202 0
1.1618 -0.212997 0
1.13627 -0.215973 0
1.11048 -0.217146 0
1.09039 -0.181623 0
1.06585 -0.184572 0
1.04103 -0.185971 0
1.17541 -0.250202 0
1.14961 -0.249216 0
1.12415 -0.246414 0
1.11048 -0.217146 0
1.08559 -0.216693 0
1.06094 -0.214655 0
1.04103 -0.185971 0
1.01694 -0.18596 0
0.993023 -0.184571 0
1.39951 -0.463979 0
1.36903 -0.447295 0
1.34081 -0.427884 0
1.36581 -0.42464 0
1.33689 -0.41108 0
1.30989 -0.395475 0
1.32997 -0.38745 0
1.3025 -0.376607 0
1.27663 -0.363691 0
1.34081 -0.427884 0
1.3166 -0.40767 0
1.29491 -0.386259 0
1.30989 -0.395475 0
1.2864 -0.378527 0
1.26518 -0.360296 0
1.27663 -0.363691 0
1.2536 -0.349259 0
1.23245 -0.333505 0
1.32997 -0.38745 0
1.3025 -0.376607 0
1.27663 -0.363691 0
1.28858 -0.348205 0
1.26191 -0.339522 0
1.23654 -0.328933 0
1.23793 -0.312317 0
1.21234 -0.305488 0
1.18793 -0.296936 0
1.27663 -0.363691 0
1.2536 -0.349259 0
1.23245 -0.333505 0
1.23654 -0.328933 0
1.21363 -0.316967 0
1.19241 -0.303764 0
1.18793 -0.296936 0
1.16567 -0.287062 0
1.1449 -0.275983 0
1.29491 -0.386259 0
1.27693 -0.364681 0
1.26176 -0.34252 0
1.26518 -0.360296 0
1.24727 -0.34136 0
1.23179 -0.32196 0
1.23245 -0.333505 0
1.21408 -0.316973 0
1.19783 -0.29983 0
1.26176 -0.34252 0
1.24911 -0.32093 0
1.23871 -0.299945 0
1.23179 -0.32196 0
1.21847 -0.302472 0
1.20743 -0.282856 0
1.19783 -0.29983 0
1.18355 -0.282472 0
1.17132 -0.265175 0
1.23245 -0.333505 0
1.21408 -0.316973 0
1.19783 -0.29983 0
1.19241 -0.303764 0
1.17376 -0.289767 0
1.15706 -0.275107 0
1.1449 -0.275983 0
1.12641 -0.264051 0
1.10965 -0.251406 0
1.19783 -0.29983 0
1.18355 -0.282472 0
1.17132 -0.265175 0
1.15706 -0.275107 0
1.14223 -0.260111 0
1.12931 -0.244866 0
1.10965 -0.251406 0
1.09453 -0.238294 0
1.08112 -0.224847 0
1.23793 -0.312317 0
1.21234 -0.305488 0
1.18793 -0.296936 0
1.18306 -0.278616 0
1.15849 -0.27311 0
1.1349 -0.266038 0
1.12415 -0.246414 0
1.10027 -0.242076 0
1.07721 -0.236324 0
1.18793 -0.296936 0
1.16567 -0.287062 0
1.1449 -0.275983 0
1.1349 -0.266038 0
1.1131 -0.257745 0
1.0926 -0.248312 0
1.07721 -0.236324 0
1.05572 -0.22944 0
1.03537 -0.22151 0
1.12415 -0.246414 0
1.10027 -0.242076 0
1.07721 -0.236324 0
1.06094 -0.214655 0
1.03762 -0.211275 0
1.01502 -0.206637 0
0.993023 -0.184571 0
0.970218 -0.182 0
0.948026 -0.178321 0
1.07721 -0.236324 0
1.05572 -0.22944 0
1.03537 -0.22151 0
1.01502 -0.206637 0
0.993765 -0.200985 0
0.973538 -0.194382 0
0.948026 -0.178321 0
0.926997 -0.17373 0
0.906882 -0.168286 0
1.1449 -0.275983 0
1.12641 -0.264051 0
1.10965 -0.251406 0
1.0926 -0.248312 0
1.07406 -0.238068 0
1.05706 -0.227152 0
1.03537 -0.22151 0
1.01677 -0.212815 0
0.999572 -0.203472 0
1.10965 -0.251406 0
1.09453 -0.238294 0
1.08112 -0.224847 0
1.05706 -0.227152 0
1.04156 -0.215798 0
1.02763 -0.204058 0
0.999572 -0.203472 0
0.983787 -0.193665 0
0.96947 -0.183458 0
1.03537 -0.22151 0
1.01677 -0.212815 0
0.999572 -0.203472 0
0.973538 -0.194382 0
0.954853 -0.187064 0
0.937443 -0.179128 0
0.906882 -0.168286 0
0.888122 -0.162185 0
0.870525 -0.155519 0
0.999572 -0.203472 0
0.983787 -0.193665 0
0.96947 -0.183458 0
0.937443 -0.179128 0
0.921312 -0.17074 0
0.906524 -0.161968 0
0.870525 -0.155519 0
0.854112 -0.148431 0
0.838967 -0.140976 0
1.18572 -0.153653 0
1.16319 -0.163093 0
1.13936 -0.17091 0
1.1083 -0.127373 0
1.08653 -0.135648 0
1.06353 -0.142535 0
1.02877 -0.101796 0
1.0075 -0.109005 0
0.985004 -0.115044 0
1.13936 -0.17091 0
1.11528 -0.177094 0
1.09039 -0.181623 0
1.06353 -0.142535 0
1.04027 -0.148024 0
1.01622 -0.152097 0
0.985004 -0.115044 0
0.962254 -0.119905 0
0.938717 -0.123571 0
1.02877 -0.101796 0
1.0075 -0.109005 0
0.985004 -0.115044 0
0.944819 -0.0774758 0
0.924143 -0.0835525 0
0.902192 -0.0886731 0
0.849571 -0.0542968 0
0.830075 -0.0591895 0
0.809141 -0.063351 0
0.985004 -0.115044 0
0.962254 -0.119905 0
0.938717 -0.123571 0
0.902192 -0.0886731 0
0.879922 -0.0928272 0
0.856829 -0.0960019 0
0.809141 -0.063351 0
0.787776 -0.0667698 0
0.765482 -0.0694282 0
1.09039 -0.181623 0
1.06585 -0.184572 0
1.04103 -0.185971 0
1.01622 -0.152097 0
0.992433 -0.15482 0
0.968331 -0.156217 0
0.938717 -0.123571 0
0.915383 -0.1261 0
0.891724 -0.127509 0
1.04103 -0.185971 0
1.01694 -0.18596 0
0.993023 -0.184571 0
0.968331 -0.156217 0
0.944822 -0.15641 0
0.921439 -0.155422 0
0.891724 -0.127509 0
0.868573 -0.127902 0
0.845522 -0.127294 0
0.938717 -0.123571 0
0.915383 -0.1261 0
0.891724 -0.127509 0
0.856829 -0.0960019 0
0.83386 -0.0982467 0
0.810535 -0.0995692 0
0.765482 -0.0694282 0
0.743194 -0.0713652 0
0.720474 -0.0725805 0
0.891724 -0.127509 0
0.868573 -0.127902 0
0.845522 -0.127294 0
0.810535 -0.0995692 0
0.78764 -0.100058 0
0.764812 -0.0997207 0
0.720474 -0.0725805 0
0.698082 -0.0731454 0
0.675705 -0.0730594 0
0.849571 -0.0542968 0
0.830075 -0.0591895 0
0.809141 -0.063351 0
0.731076 -0.0335435 0
0.714039 -0.0370638 0
0.695387 -0.0400838 0
0.567888 -0.0156131 0
0.555029 -0.0176608 0
0.540482 -0.0194372 0
0.809141 -0.063351 0
0.787776 -0.0667698 0
0.765482 -0.0694282 0
0.695387 -0.0400838 0
0.676086 -0.0425925 0
0.655692 -0.044569 0
0.540482 -0.0194372 0
0.525125 -0.0209428 0
0.50859 -0.0221522 0
0.567888 -0.0156131 0
0.555029 -0.0176608 0
0.540482 -0.0194372 0
0.33348 -0.00444703 0
0.32651 -0.00510544 0
0.31817 -0.00566701 0
0 0 0
0 0 0
0 0 0
0.540482 -0.0194372 0
0.525125 -0.0209428 0
0.50859 -0.0221522 0
0.31817 -0.00566701 0
0.309206 -0.00615152 0
0.299238 -0.00652559 0
0 0 0
0 0 0
0 0 0
0.765482 -0.0694282 0
0.743194 -0.0713652 0
0.720474 -0.0725805 0
0.655692 -0.044569 0
0.635102 -0.0460427 0
0.613943 -0.0470052 0
0.50859 -0.0221522 0
0.491662 -0.0230928 0
0.474064 -0.0237428 0
0.720474 -0.0725805 0
0.698082 -0.0731454 0
0.675705 -0.0730594 0