# vtk DataFile Version 3.0
#This file was generated by the deal.II library on 2025/1/3 at 17:37:57
ASCII
DATASET UNSTRUCTURED_GRID

POINTS 34560 double
1.1 1.1 0
1.03125 1.09531 0
0.9625 1.09063 0
1.09375 1.03125 0
1.02539 1.02686 0
0.957031 1.02246 0
1.0875 0.9625 0
1.01953 0.958398 0
0.951563 0.954297 0
0.9625 1.09063 0
0.89375 1.08594 0
0.825 1.08125 0
0.957031 1.02246 0
0.888672 1.01807 0
0.820312 1.01367 0
0.951563 0.954297 0
0.883594 0.950195 0
0.815625 0.946094 0
1.0875 0.9625 0
1.01953 0.958398 0
0.951563 0.954297 0
1.08125 0.89375 0
1.01367 0.889941 0
0.946094 0.886133 0
1.075 0.825 0
1.00781 0.821484 0
0.940625 0.817969 0
0.951563 0.954297 0
0.883594 0.950195 0
0.815625 0.946094 0
0.946094 0.886133 0
0.878516 0.882324 0
0.810938 0.878516 0
0.940625 0.817969 0
0.873438 0.814453 0
0.80625 0.810937 0
0.825 1.08125 0
0.75625 1.07656 0
0.6875 1.07187 0
0.820312 1.01367 0
0.751953 1.00928 0
0.683594 1.00488 0
0.815625 0.946094 0
0.747656 0.941992 0
0.679688 0.937891 0
0.6875 1.07187 0
0.61875 1.06719 0
0.55 1.0625 0
0.683594 1.00488 0
0.615234 1.00049 0
0.546875 0.996094 0
0.679688 0.937891 0
0.611719 0.933789 0
0.54375 0.929688 0
0.815625 0.946094 0
0.747656 0.941992 0
0.679688 0.937891 0
0.810938 0.878516 0
0.743359 0.874707 0
0.675781 0.870898 0
0.80625 0.810937 0
0.739063 0.807422 0
0.671875 0.803906 0
0.679688 0.937891 0
0.611719 0.933789 0
0.54375 0.929688 0
0.675781 0.870898 0
0.608203 0.86709 0
0.540625 0.863281 0
0.671875 0.803906 0
0.604688 0.800391 0
0.5375 0.796875 0
1.075 0.825 0
1.00781 0.821484 0
0.940625 0.817969 0
1.06875 0.75625 0
1.00195 0.753027 0
0.935156 0.749805 0
1.0625 0.6875 0
0.996094 0.68457 0
0.929688 0.681641 0
0.940625 0.817969 0
0.873438 0.814453 0
0.80625 0.810937 0
0.935156 0.749805 0
0.868359 0.746582 0
0.801563 0.743359 0
0.929688 0.681641 0
0.863281 0.678711 0
0.796875 0.675781 0
1.0625 0.6875 0
0.996094 0.68457 0
0.929688 0.681641 0
1.05625 0.61875 0
0.990234 0.616113 0
0.924219 0.613477 0
1.05 0.55 0
0.984375 0.547656 0
0.91875 0.545313 0
0.929688 0.681641 0
0.863281 0.678711 0
0.796875 0.675781 0
0.924219 0.613477 0
0.858203 0.61084 0
0.792188 0.608203 0
0.91875 0.545313 0
0.853125 0.542969 0
0.7875 0.540625 0
0.80625 0.810937 0
0.739063 0.807422 0
0.671875 0.803906 0
0.801563 0.743359 0
0.734766 0.740137 0
0.667969 0.736914 0
0.796875 0.675781 0
0.730469 0.672852 0
0.664062 0.669922 0
0.671875 0.803906 0
0.604688 0.800391 0
0.5375 0.796875 0
0.667969 0.736914 0
0.601172 0.733691 0
0.534375 0.730469 0
0.664062 0.669922 0
0.597656 0.666992 0
0.53125 0.664062 0
0.796875 0.675781 0
0.730469 0.672852 0
0.664062 0.669922 0
0.792188 0.608203 0
0.726172 0.605566 0
0.660156 0.60293 0
0.7875 0.540625 0
0.721875 0.538281 0
0.65625 0.535937 0
0.664062 0.669922 0
0.597656 0.666992 0
0.53125 0.664062 0
0.660156 0.60293 0
0.594141 0.600293 0
0.528125 0.597656 0
0.65625 0.535937 0
0.590625 0.533594 0
0.525 0.53125 0
0.55 1.0625 0
0.48125 1.05781 0
0.4125 1.05313 0
0.546875 0.996094 0
0.478516 0.991699 0
0.410156 0.987305 0
0.54375 0.929688 0
0.475781 0.925586 0
0.407813 0.921484 0
0.4125 1.05313 0
0.34375 1.04844 0
0.275 1.04375 0
0.410156 0.987305 0
0.341797 0.98291 0
0.273438 0.978516 0
0.407813 0.921484 0
0.339844 0.917383 0
0.271875 0.913281 0
0.54375 0.929688 0
0.475781 0.925586 0
0.407813 0.921484 0
0.540625 0.863281 0
0.473047 0.859473 0
0.405469 0.855664 0
0.5375 0.796875 0
0.470313 0.793359 0
0.403125 0.789844 0
0.407813 0.921484 0
0.339844 0.917383 0
0.271875 0.913281 0
0.405469 0.855664 0
0.337891 0.851855 0
0.270313 0.848047 0
0.403125 0.789844 0
0.335938 0.786328 0
0.26875 0.782813 0
0.275 1.04375 0
0.20625 1.03906 0
0.1375 1.03437 0
0.273438 0.978516 0
0.205078 0.974121 0
0.136719 0.969727 0
0.271875 0.913281 0
0.203906 0.90918 0
0.135938 0.905078 0
0.1375 1.03437 0
0.06875 1.02969 0
0 1.025 0
0.136719 0.969727 0
0.0683594 0.965332 0
0 0.960937 0
0.135938 0.905078 0
0.0679688 0.900977 0
0 0.896875 0
0.271875 0.913281 0
0.203906 0.90918 0
0.135938 0.905078 0
0.270313 0.848047 0
0.202734 0.844238 0
0.135156 0.84043 0
0.26875 0.782813 0
0.201563 0.779297 0
0.134375 0.775781 0
0.135938 0.905078 0
0.0679688 0.900977 0
0 0.896875 0
0.135156 0.84043 0
0.0675781 0.836621 0
0 0.832812 0
0.134375 0.775781 0
0.0671875 0.772266 0
0 0.76875 0
0.5375 0.796875 0
0.470313 0.793359 0
0.403125 0.789844 0
0.534375 0.730469 0
0.467578 0.727246 0
0.400781 0.724023 0
0.53125 0.664062 0
0.464844 0.661133 0
0.398438 0.658203 0
0.403125 0.789844 0
0.335938 0.786328 0
0.26875 0.782813 0
0.400781 0.724023 0
0.333984 0.720801 0
0.267188 0.717578 0
0.398438 0.658203 0
0.332031 0.655273 0
0.265625 0.652344 0
0.53125 0.664062 0
0.464844 0.661133 0
0.398438 0.658203 0
0.528125 0.597656 0
0.462109 0.59502 0
0.396094 0.592383 0
0.525 0.53125 0
0.459375 0.528906 0
0.39375 0.526563 0
0.398438 0.658203 0
0.332031 0.655273 0
0.265625 0.652344 0
0.396094 0.592383 0
0.330078 0.589746 0
0.264062 0.587109 0
0.39375 0.526563 0
0.328125 0.524219 0
0.2625 0.521875 0
0.26875 0.782813 0
0.201563 0.779297 0
0.134375 0.775781 0
0.267188 0.717578 0
0.200391 0.714355 0
0.133594 0.711133 0
0.265625 0.652344 0
0.199219 0.649414 0
0.132812 0.646484 0
0.134375 0.775781 0
0.0671875 0.772266 0
0 0.76875 0
0.133594 0.711133 0
0.0667969 0.70791 0
0 0.704687 0
0.132812 0.646484 0
0.0664062 0.643555 0
0 0.640625 0
0.265625 0.652344 0
0.199219 0.649414 0
0.132812 0.646484 0
0.264062 0.587109 0
0.198047 0.584473 0
0.132031 0.581836 0
0.2625 0.521875 0
0.196875 0.519531 0
0.13125 0.517187 0
0.132812 0.646484 0
0.0664062 0.643555 0
0 0.640625 0
0.132031 0.581836 0
0.0660156 0.579199 0
0 0.576562 0
0.13125 0.517187 0
0.065625 0.514844 0
0 0.5125 0
1.05 0.55 0
0.984375 0.547656 0
0.91875 0.545313 0
1.04375 0.48125 0
0.978516 0.479199 0
0.913281 0.477148 0
1.0375 0.4125 0
0.972656 0.410742 0
0.907813 0.408984 0
0.91875 0.545313 0
0.853125 0.542969 0
0.7875 0.540625 0
0.913281 0.477148 0
0.848047 0.475098 0
0.782813 0.473047 0
0.907813 0.408984 0
0.842969 0.407227 0
0.778125 0.405469 0
1.0375 0.4125 0
0.972656 0.410742 0
0.907813 0.408984 0
1.03125 0.34375 0
0.966797 0.342285 0
0.902344 0.34082 0
1.025 0.275 0
0.960937 0.273828 0
0.896875 0.272656 0
0.907813 0.408984 0
0.842969 0.407227 0
0.778125 0.405469 0
0.902344 0.34082 0
0.837891 0.339355 0
0.773438 0.337891 0
0.896875 0.272656 0
0.832812 0.271484 0
0.76875 0.270313 0
0.7875 0.540625 0
0.721875 0.538281 0
0.65625 0.535937 0
0.782813 0.473047 0
0.717578 0.470996 0
0.652344 0.468945 0
0.778125 0.405469 0
0.713281 0.403711 0
0.648438 0.401953 0
0.65625 0.535937 0
0.590625 0.533594 0
0.525 0.53125 0
0.652344 0.468945 0
0.587109 0.466895 0
0.521875 0.464844 0
0.648438 0.401953 0
0.583594 0.400195 0
0.51875 0.398438 0
0.778125 0.405469 0
0.713281 0.403711 0
0.648438 0.401953 0
0.773438 0.337891 0
0.708984 0.336426 0
0.644531 0.334961 0
0.76875 0.270313 0
0.704687 0.269141 0
0.640625 0.267969 0
0.648438 0.401953 0
0.583594 0.400195 0
0.51875 0.398438 0
0.644531 0.334961 0
0.580078 0.333496 0
0.515625 0.332031 0
0.640625 0.267969 0
0.576562 0.266797 0
0.5125 0.265625 0
1.025 0.275 0
0.960937 0.273828 0
0.896875 0.272656 0
1.01875 0.20625 0
0.955078 0.205371 0
0.891406 0.204492 0
1.0125 0.1375 0
0.949219 0.136914 0
0.885937 0.136328 0
0.896875 0.272656 0
0.832812 0.271484 0
0.76875 0.270313 0
0.891406 0.204492 0
0.827734 0.203613 0
0.764062 0.202734 0
0.885937 0.136328 0
0.822656 0.135742 0
0.759375 0.135156 0
1.0125 0.1375 0
0.949219 0.136914 0
0.885937 0.136328 0
1.00625 0.06875 0
0.943359 0.068457 0
0.880469 0.0681641 0
1 0 0
0.9375 0 0
0.875 0 0
0.885937 0.136328 0
0.822656 0.135742 0
0.759375 0.135156 0
0.880469 0.0681641 0
0.817578 0.0678711 0
0.754687 0.0675781 0
0.875 0 0
0.8125 0 0
0.75 0 0
0.76875 0.270313 0
0.704687 0.269141 0
0.640625 0.267969 0
0.764062 0.202734 0
0.700391 0.201855 0
0.636719 0.200977 0
0.759375 0.135156 0
0.696094 0.13457 0
0.632812 0.133984 0
0.640625 0.267969 0
0.576562 0.266797 0
0.5125 0.265625 0
0.636719 0.200977 0
0.573047 0.200098 0
0.509375 0.199219 0
0.632812 0.133984 0
0.569531 0.133398 0
0.50625 0.132812 0
0.759375 0.135156 0
0.696094 0.13457 0
0.632812 0.133984 0
0.754687 0.0675781 0
0.691797 0.0672852 0
0.628906 0.0669922 0
0.75 0 0
0.6875 0 0
0.625 0 0
0.632812 0.133984 0
0.569531 0.133398 0
0.50625 0.132812 0
0.628906 0.0669922 0
0.566016 0.0666992 0
0.503125 0.0664062 0
0.625 0 0
0.5625 0 0
0.5 0 0
0.525 0.53125 0
0.459375 0.528906 0
0.39375 0.526563 0
0.521875 0.464844 0
0.456641 0.462793 0
0.391406 0.460742 0
0.51875 0.398438 0
0.453906 0.39668 0
0.389063 0.394922 0
0.39375 0.526563 0
0.328125 0.524219 0
0.2625 0.521875 0
0.391406 0.460742 0
0.326172 0.458691 0
0.260938 0.456641 0
0.389063 0.394922 0
0.324219 0.393164 0
0.259375 0.391406 0
0.51875 0.398438 0
0.453906 0.39668 0
0.389063 0.394922 0
0.515625 0.332031 0
0.451172 0.330566 0
0.386719 0.329102 0
0.5125 0.265625 0
0.448437 0.264453 0
0.384375 0.263281 0
0.389063 0.394922 0
0.324219 0.393164 0
0.259375 0.391406 0
0.386719 0.329102 0
0.322266 0.327637 0
0.257812 0.326172 0
0.384375 0.263281 0
0.320312 0.262109 0
0.25625 0.260937 0
0.2625 0.521875 0
0.196875 0.519531 0
0.13125 0.517187 0
0.260938 0.456641 0
0.195703 0.45459 0
0.130469 0.452539 0
0.259375 0.391406 0
0.194531 0.389648 0
0.129688 0.387891 0
0.13125 0.517187 0
0.065625 0.514844 0
0 0.5125 0
0.130469 0.452539 0
0.0652344 0.450488 0
0 0.448437 0
0.129688 0.387891 0
0.0648438 0.386133 0
0 0.384375 0
0.259375 0.391406 0
0.194531 0.389648 0
0.129688 0.387891 0
0.257812 0.326172 0
0.193359 0.324707 0
0.128906 0.323242 0
0.25625 0.260937 0
0.192187 0.259766 0
0.128125 0.258594 0
0.129688 0.387891 0
0.0648438 0.386133 0
0 0.384375 0
0.128906 0.323242 0
0.0644531 0.321777 0
0 0.320312 0
0.128125 0.258594 0
0.0640625 0.257422 0
0 0.25625 0
0.5125 0.265625 0
0.448437 0.264453 0
0.384375 0.263281 0
0.509375 0.199219 0
0.445703 0.19834 0
0.382031 0.197461 0
0.50625 0.132812 0
0.442969 0.132227 0
0.379688 0.131641 0
0.384375 0.263281 0
0.320312 0.262109 0
0.25625 0.260937 0
0.382031 0.197461 0
0.318359 0.196582 0
0.254687 0.195703 0
[...]
POINT_DATA 34560
VECTORS v double
1.26439 -0.310944 0
1.24702 -0.285433 0
1.23159 -0.26194 0
1.23141 -0.291083 0
1.21235 -0.269012 0
1.19547 -0.247738 0
1.19357 -0.27119 0
1.17346 -0.251583 0
1.15514 -0.232418 0
1.23159 -0.26194 0
1.21798 -0.239073 0
1.20611 -0.217588 0
1.19547 -0.247738 0
1.18011 -0.227058 0
1.16685 -0.207269 0
1.15514 -0.232418 0
1.13856 -0.213702 0
1.12382 -0.195526 0
1.19357 -0.27119 0
1.17346 -0.251583 0
1.15514 -0.232418 0
1.14987 -0.248806 0
1.12873 -0.231768 0
1.10939 -0.21495 0
1.09992 -0.227189 0
1.07833 -0.212423 0
1.05835 -0.197654 0
1.15514 -0.232418 0
1.13856 -0.213702 0
1.12382 -0.195526 0
1.10939 -0.21495 0
1.09174 -0.198326 0
1.07592 -0.182045 0
1.05835 -0.197654 0
1.04007 -0.18291 0
1.0235 -0.168325 0
1.20611 -0.217588 0
1.19519 -0.196822 0
1.18578 -0.177001 0
1.16685 -0.207269 0
1.15435 -0.187982 0
1.1437 -0.169451 0
1.12382 -0.195526 0
1.11012 -0.177762 0
1.09816 -0.160505 0
1.18578 -0.177001 0
1.17673 -0.15778 0
1.16894 -0.139177 0
1.1437 -0.169451 0
1.13334 -0.151296 0
1.12454 -0.133678 0
1.09816 -0.160505 0
1.08675 -0.143549 0
1.07688 -0.126978 0
1.12382 -0.195526 0
1.11012 -0.177762 0
1.09816 -0.160505 0
1.07592 -0.182045 0
1.06122 -0.165961 0
1.04825 -0.150226 0
1.0235 -0.168325 0
1.00812 -0.153811 0
0.994402 -0.139504 0
1.09816 -0.160505 0
1.08675 -0.143549 0
1.07688 -0.126978 0
1.04825 -0.150226 0
1.03599 -0.134645 0
1.02529 -0.119322 0
0.994402 -0.139504 0
0.981523 -0.125256 0
0.970175 -0.111163 0
1.09992 -0.227189 0
1.07833 -0.212423 0
1.05835 -0.197654 0
1.04482 -0.205046 0
1.02299 -0.19238 0
1.00266 -0.179565 0
0.985147 -0.183455 0
0.96328 -0.172625 0
0.942767 -0.161553 0
1.05835 -0.197654 0
1.04007 -0.18291 0
1.0235 -0.168325 0
1.00266 -0.179565 0
0.983947 -0.166631 0
0.96684 -0.153732 0
0.942767 -0.161553 0
0.92378 -0.150288 0
0.906298 -0.138967 0
0.985147 -0.183455 0
0.96328 -0.172625 0
0.942767 -0.161553 0
0.920911 -0.161202 0
0.89909 -0.152107 0
0.878537 -0.142734 0
0.852199 -0.139715 0
0.830622 -0.132165 0
0.810196 -0.124317 0
0.942767 -0.161553 0
0.92378 -0.150288 0
0.906298 -0.138967 0
0.878537 -0.142734 0
0.859414 -0.133118 0
0.841719 -0.123384 0
0.810196 -0.124317 0
0.791107 -0.116203 0
0.773353 -0.107935 0
1.0235 -0.168325 0
1.00812 -0.153811 0
0.994402 -0.139504 0
0.96684 -0.153732 0
0.950954 -0.1408 0
0.936664 -0.127967 0
0.906298 -0.138967 0
0.890049 -0.127542 0
0.875329 -0.116134 0
0.994402 -0.139504 0
0.981523 -0.125256 0
0.970175 -0.111163 0
0.936664 -0.127967 0
0.923308 -0.115111 0
0.911458 -0.102327 0
0.875329 -0.116134 0
0.861615 -0.104648 0
0.849379 -0.0931685 0
0.906298 -0.138967 0
0.890049 -0.127542 0
0.875329 -0.116134 0
0.841719 -0.123384 0
0.825241 -0.113491 0
0.810238 -0.103552 0
0.773353 -0.107935 0
0.756785 -0.099481 0
0.741628 -0.0909436 0
0.875329 -0.116134 0
0.861615 -0.104648 0
0.849379 -0.0931685 0
0.810238 -0.103552 0
0.796283 -0.0934867 0
0.783781 -0.0833751 0
0.741628 -0.0909436 0
0.727542 -0.0822556 0
0.714876 -0.073487 0
1.16894 -0.139177 0
1.16139 -0.120978 0
1.1549 -0.103154 0
1.12454 -0.133678 0
1.11597 -0.116309 0
1.10871 -0.0992835 0
1.07688 -0.126978 0
1.06746 -0.110592 0
1.0594 -0.0944639 0
1.1549 -0.103154 0
1.14848 -0.0855853 0
1.14293 -0.068222 0
1.10871 -0.0992835 0
1.10156 -0.0824125 0
1.09549 -0.0657319 0
1.0594 -0.0944639 0
1.05164 -0.078445 0
1.04505 -0.06257 0
1.07688 -0.126978 0
1.06746 -0.110592 0
1.0594 -0.0944639 0
1.02529 -0.119322 0
1.01521 -0.104085 0
1.00651 -0.0890214 0
0.970175 -0.111163 0
0.959582 -0.0970919 0
0.95039 -0.0831209 0
1.0594 -0.0944639 0
1.05164 -0.078445 0
1.04505 -0.06257 0
1.00651 -0.0890214 0
0.998299 -0.0740038 0
0.991305 -0.0590712 0
0.95039 -0.0831209 0
0.941823 -0.0691493 0
0.934515 -0.0552175 0
1.14293 -0.068222 0
1.1376 -0.0510082 0
1.13305 -0.0338998 0
1.09549 -0.0657319 0
1.08973 -0.0491571 0
1.0849 -0.0326908 0
1.04505 -0.06257 0
1.03891 -0.046775 0
1.03382 -0.0310811 0
1.13305 -0.0338998 0
1.12868 -0.0169048 0
1.125 0 0
1.0849 -0.0326908 0
1.08037 -0.0163214 0
1.07666 0 0
1.03382 -0.0310811 0
1.02913 -0.0154901 0
1.02539 0 0
1.04505 -0.06257 0
1.03891 -0.046775 0
1.03382 -0.0310811 0
0.991305 -0.0590712 0
0.984911 -0.0441801 0
0.979628 -0.0293699 0
0.934515 -0.0552175 0
0.927926 -0.0413043 0
0.922499 -0.02745 0
1.03382 -0.0310811 0
1.02913 -0.0154901 0
1.02539 0 0
0.979628 -0.0293699 0
0.974902 -0.0146512 0
0.971191 0 0
0.922499 -0.02745 0
0.917744 -0.0136826 0
0.914062 0 0
0.970175 -0.111163 0
0.959582 -0.0970919 0
0.95039 -0.0831209 0
0.911458 -0.102327 0
0.90047 -0.089502 0
0.890891 -0.0767131 0
0.849379 -0.0931685 0
0.838092 -0.0816055 0
0.828215 -0.0700273 0
0.95039 -0.0831209 0
0.941823 -0.0691493 0
0.934515 -0.0552175 0
0.890891 -0.0767131 0
0.88206 -0.0638777 0
0.874522 -0.0510398 0
0.828215 -0.0700273 0
0.819193 -0.0583693 0
0.811492 -0.0466725 0
0.849379 -0.0931685 0
0.838092 -0.0816055 0
0.828215 -0.0700273 0
0.783781 -0.0833751 0
0.772292 -0.0731397 0
0.762216 -0.0628457 0
0.714876 -0.073487 0
0.703269 -0.0645736 0
0.69307 -0.0555715 0
0.828215 -0.0700273 0
0.819193 -0.0583693 0
0.811492 -0.0466725 0
0.762216 -0.0628457 0
0.753079 -0.0524366 0
0.745289 -0.0419555 0
0.69307 -0.0555715 0
0.68388 -0.0464344 0
0.676058 -0.0371999 0
0.934515 -0.0552175 0
0.927926 -0.0413043 0
0.922499 -0.02745 0
0.874522 -0.0510398 0
0.867807 -0.0381892 0
0.862302 -0.0253749 0
0.811492 -0.0466725 0
0.804704 -0.0349397 0
0.799165 -0.0232219 0
0.922499 -0.02745 0
0.917744 -0.0136826 0
0.914062 0 0
0.862302 -0.0253749 0
0.857585 -0.0126404 0
0.854004 0 0
0.799165 -0.0232219 0
0.794503 -0.0115755 0
0.791016 0 0
0.811492 -0.0466725 0
0.804704 -0.0349397 0
0.799165 -0.0232219 0
0.745289 -0.0419555 0
0.738488 -0.0314105 0
0.732973 -0.02086 0
0.676058 -0.0371999 0
0.669289 -0.0278817 0
0.663838 -0.0185361 0
0.799165 -0.0232219 0
0.794503 -0.0115755 0
0.791016 0 0
0.732973 -0.02086 0
0.728422 -0.0103729 0
0.725098 0 0
0.663838 -0.0185361 0
0.659418 -0.00924227 0
0.65625 0 0
0.852199 -0.139715 0
0.830622 -0.132165 0
0.810196 -0.124317 0
0.779421 -0.118025 0
0.758147 -0.111876 0
0.737942 -0.105445 0
0.702315 -0.0969963 0
0.681495 -0.092124 0
0.66165 -0.0869969 0
0.810196 -0.124317 0
0.791107 -0.116203 0
0.773353 -0.107935 0
0.737942 -0.105445 0
0.71897 -0.0987539 0
0.701258 -0.0919039 0
0.66165 -0.0869969 0
0.642942 -0.081631 0
0.625413 -0.0761151 0
0.702315 -0.0969963 0
0.681495 -0.092124 0
0.66165 -0.0869969 0
0.620659 -0.0759806 0
0.600414 -0.0722603 0
0.581083 -0.068334 0
0.532889 -0.0558355 0
0.51355 -0.0531786 0
0.495045 -0.050364 0
0.66165 -0.0869969 0
0.642942 -0.081631 0
0.625413 -0.0761151 0
0.581083 -0.068334 0
0.562784 -0.0642066 0
0.545598 -0.0599547 0
0.495045 -0.050364 0
0.477476 -0.0473896 0
0.46094 -0.0443224 0
0.773353 -0.107935 0
0.756785 -0.099481 0
0.741628 -0.0909436 0
0.701258 -0.0919039 0
0.684689 -0.0848643 0
0.669476 -0.0777241 0
0.625413 -0.0761151 0
0.608976 -0.070419 0
0.593832 -0.0646212 0
0.741628 -0.0909436 0
0.727542 -0.0822556 0
0.714876 -0.073487 0
0.669476 -0.0777241 0
0.655341 -0.0704234 0
0.642596 -0.0630238 0
0.593832 -0.0646212 0
0.579755 -0.0586681 0
0.56703 -0.052612 0
0.625413 -0.0761151 0
0.608976 -0.070419 0
0.593832 -0.0646212 0
0.545598 -0.0599547 0
0.529438 -0.0555474 0
0.514508 -0.0510528 0
0.46094 -0.0443224 0
0.445353 -0.0411312 0
0.430919 -0.0378742 0
0.593832 -0.0646212 0
0.579755 -0.0586681 0
0.56703 -0.052612 0
0.514508 -0.0510528 0
0.500617 -0.0464217 0
0.488032 -0.0416977 0
0.430919 -0.0378742 0
0.417469 -0.0345077 0
0.405259 -0.0310693 0
0.532889 -0.0558355 0
0.51355 -0.0531786 0
0.495045 -0.050364 0
0.436478 -0.0364645 0
0.418552 -0.0347376 0
0.401407 -0.032911 0
0.324294 -0.0190154 0
0.309094 -0.0181393 0
0.294549 -0.0172153 0
0.495045 -0.050364 0
0.477476 -0.0473896 0
0.46094 -0.0443224 0
0.401407 -0.032911 0
0.385082 -0.0309729 0
0.369714 -0.0289797 0
0.294549 -0.0172153 0
0.280685 -0.0162227 0
0.267637 -0.0152063 0
0.324294 -0.0190154 0
0.309094 -0.0181393 0
0.294549 -0.0172153 0
0.184298 -0.00565034 0
0.174336 -0.00536974 0
0.164871 -0.00508831 0
0 0 0
0 0 0
0 0 0
0.294549 -0.0172153 0
0.280685 -0.0162227 0
0.267637 -0.0152063 0
0.164871 -0.00508831 0
0.155812 -0.00477837 0
0.14735 -0.00447562 0
0 0 0
0 0 0
0 0 0
0.46094 -0.0443224 0
0.445353 -0.0411312 0
0.430919 -0.0378742 0
0.369714 -0.0289797 0
0.355196 -0.0269002 0
0.341743 -0.0247826 0
0.267637 -0.0152063 0
0.255302 -0.0141352 0
0.243873 -0.0130496 0
0.430919 -0.0378742 0
0.417469 -0.0345077 0
0.405259 -0.0310693 0
0.341743 -0.0247826 0
0.329187 -0.0225888 0
0.317779 -0.0203523 0
0.243873 -0.0130496 0
0.233201 -0.0119185 0
0.223505 -0.0107715 0
0.267637 -0.0152063 0
0.255302 -0.0141352 0
0.243873 -0.0130496 0
0.14735 -0.00447562 0
0.139318 -0.0041449 0
0.131938 -0.00382196 0
0 0 0
0 0 0
0 0 0
0.243873 -0.0130496 0
0.233201 -0.0119185 0
0.223505 -0.0107715 0
0.131938 -0.00382196 0
0.125015 -0.00347525 0
0.118783 -0.00313531 0
0 0 0
0 0 0
0 0 0
0.714876 -0.073487 0
0.703269 -0.0645736 0
0.69307 -0.0555715 0
0.642596 -0.0630238 0
0.630939 -0.0554679 0
0.620686 -0.0478044 0
0.56703 -0.052612 0
0.555405 -0.0464017 0
0.54517 -0.0400783 0
0.69307 -0.0555715 0
0.68388 -0.0464344 0
0.676058 -0.0371999 0
0.620686 -0.0478044 0
0.611497 -0.0399902 0
0.603695 -0.0320593 0
0.54517 -0.0400783 0
0.536039 -0.0336021 0
0.528307 -0.0269984 0
0.56703 -0.052612 0
0.555405 -0.0464017 0
0.54517 -0.0400783 0
0.488032 -0.0416977 0
0.476538 -0.0368339 0
0.46641 -0.0318646 0
0.405259 -0.0310693 0
0.3941 -0.0275172 0
0.384256 -0.023878 0
0.54517 -0.0400783 0
0.536039 -0.0336021 0
0.528307 -0.0269984 0
0.46641 -0.0318646 0
0.457408 -0.0267508 0
0.449809 -0.0215092 0
0.384256 -0.023878 0
0.375527 -0.0201141 0
0.36818 -0.0162355 0
0.676058 -0.0371999 0
0.669289 -0.0278817 0
0.663838 -0.0185361 0
0.603695 -0.0320593 0
0.597002 -0.0240246 0
0.591662 -0.0159455 0
0.528307 -0.0269984 0
0.521732 -0.020278 0
0.516537 -0.0134942 0
0.663838 -0.0185361 0
0.659418 -0.00924227 0
0.65625 0 0
0.591662 -0.0159455 0
0.587418 -0.00790657 0
0.584473 0 0
0.516537 -0.0134942 0
0.512492 -0.0067361 0
0.509766 0 0
0.528307 -0.0269984 0
0.521732 -0.020278 0
0.516537 -0.0134942 0
0.449809 -0.0215092 0
0.443396 -0.0161435 0
0.438385 -0.0107092 0
0.36818 -0.0162355 0
0.36202 -0.0122375 0
0.357261 -0.00815523 0
0.516537 -0.0134942 0
0.512492 -0.0067361 0
0.509766 0 0
0.438385 -0.0107092 0
0.434576 -0.00528665 0
0.432129 0 0
0.357261 -0.00815523 0
0.35373 -0.00407838 0
0.351562 0 0
0.405259 -0.0310693 0
0.3941 -0.0275172 0
0.384256 -0.023878 0
0.317779 -0.0203523 0
0.307338 -0.018037 0
0.298127 -0.0156641 0
0.223505 -0.0107715 0
0.214625 -0.00958021 0
0.206792 -0.00836128 0
0.384256 -0.023878 0
0.375527 -0.0201141 0
0.36818 -0.0162355 0
0.298127 -0.0156641 0
0.289964 -0.0132004 0
0.283115 -0.0106521 0
0.206792 -0.00836128 0
0.199848 -0.00708967 0
0.194036 -0.00577565 0
0.223505 -0.0107715 0
0.214625 -0.00958021 0
0.206792 -0.00836128 0
0.118783 -0.00313531 0
0.113041 -0.00277657 0
0.108035 -0.00241624 0
0 0 0
0 0 0
0 0 0
0.206792 -0.00836128 0
0.199848 -0.00708967 0
0.194036 -0.00577565 0
0.108035 -0.00241624 0
0.103559 -0.00203047 0
0.0998553 -0.00164045 0
0 0 0
0 0 0
0 0 0
0.36818 -0.0162355 0
0.36202 -0.0122375 0
0.357261 -0.00815523 0
0.283115 -0.0106521 0
0.277403 -0.00800223 0
0.273056 -0.00527672 0
0.194036 -0.00577565 0
0.189219 -0.00440055 0
0.185612 -0.00294962 0
0.357261 -0.00815523 0
0.35373 -0.00407838 0
0.351562 0 0
0.273056 -0.00527672 0
0.269896 -0.00253535 0
0.268066 0 0
0.185612 -0.00294962 0
0.183048 -0.00148096 0
0.181641 0 0
0.194036 -0.00577565 0
0.189219 -0.00440055 0
0.185612 -0.00294962 0
0.0998553 -0.00164045 0
0.0967615 -0.00123754 0
0.094561 -0.000796514 0
0 0 0
0 0 0
0 0 0
0.185612 -0.00294962 0
0.183048 -0.00148096 0
0.181641 0 0
0.094561 -0.000796514 0
0.0929934 -0.000300256 0
0.0922852 0 0
0 0 0
0 0 0
0 0 0
1.77533 -0.322799 0
1.73882 -0.358544 0
1.69776 -0.388454 0
1.69982 -0.275581 0
1.66756 -0.308587 0
1.63136 -0.336401 0
1.62016 -0.236227 0
1.59331 -0.266345 0
1.56262 -0.292222 0
1.69776 -0.388454 0
1.65558 -0.411001 0
1.61051 -0.427136 0
1.63136 -0.336401 0
1.59406 -0.358507 0
1.55415 -0.374992 0
1.56262 -0.292222 0
1.53082 -0.313444 0
1.49642 -0.329898 0
1.62016 -0.236227 0
1.59331 -0.266345 0
1.56262 -0.292222 0
1.54625 -0.205181 0
1.52303 -0.231189 0
1.49649 -0.253844 0
1.46906 -0.174769 0
1.44812 -0.198019 0
1.42417 -0.21847 0
1.56262 -0.292222 0
1.53082 -0.313444 0
1.49642 -0.329898 0
1.49649 -0.253844 0
1.46859 -0.272704 0
1.43826 -0.28773 0
1.42417 -0.21847 0
1.39903 -0.235807 0
1.37169 -0.249939 0
1.61051 -0.427136 0
1.56816 -0.436595 0
1.5248 -0.439873 0
1.55415 -0.374992 0
1.51635 -0.385837 0
1.4775 -0.391698 0
1.49642 -0.329898 0
1.46342 -0.341658 0
1.42921 -0.348938 0
1.5248 -0.439873 0
1.48594 -0.438397 0
1.44748 -0.432276 0
1.4775 -0.391698 0
1.44217 -0.393015 0
1.40704 -0.3903 0
1.42921 -0.348938 0
1.39749 -0.352151 0
1.36568 -0.351627 0
1.49642 -0.329898 0
1.46342 -0.341658 0
1.42921 -0.348938 0
1.43826 -0.28773 0
1.40862 -0.298871 0
1.37766 -0.306334 0
1.37169 -0.249939 0
1.34475 -0.260829 0
1.3166 -0.268611 0
1.42921 -0.348938 0
1.39749 -0.352151 0
1.36568 -0.351627 0
1.37766 -0.306334 0
1.34841 -0.31041 0
1.31883 -0.311315 0
1.3166 -0.268611 0
1.28969 -0.273461 0
1.26243 -0.275543 0
1.46906 -0.174769 0
1.44812 -0.198019 0
1.42417 -0.21847 0
1.39006 -0.149615 0
1.37141 -0.170297 0
1.35002 -0.188625 0
1.31171 -0.125814 0
1.29489 -0.144218 0
1.27551 -0.160675 0
1.42417 -0.21847 0
1.39903 -0.235807 0
1.37169 -0.249939 0
1.35002 -0.188625 0
1.32748 -0.20431 0
1.30288 -0.217298 0
1.27551 -0.160675 0
1.25498 -0.174912 0
1.23251 -0.186878 0
1.31171 -0.125814 0
1.29489 -0.144218 0
1.27551 -0.160675 0
1.2323 -0.104951 0
1.21693 -0.120988 0
1.19919 -0.135409 0
1.15092 -0.0851907 0
1.13665 -0.0991725 0
1.12014 -0.111831 0
1.27551 -0.160675 0
1.25498 -0.174912 0
1.23251 -0.186878 0
1.19919 -0.135409 0
1.1803 -0.147985 0
1.15955 -0.158672 0
1.12014 -0.111831 0
1.10253 -0.122966 0
1.08316 -0.132533 0
1.37169 -0.249939 0
1.34475 -0.260829 0
1.3166 -0.268611 0
1.30288 -0.217298 0
1.27845 -0.227528 0
1.25279 -0.2351 0
1.23251 -0.186878 0
1.20998 -0.196497 0
1.18624 -0.203843 0
1.3166 -0.268611 0
1.28969 -0.273461 0
1.26243 -0.275543 0
1.25279 -0.2351 0
1.22801 -0.24014 0
1.20276 -0.242762 0
1.18624 -0.203843 0
1.16307 -0.208995 0
1.13937 -0.212043 0
1.23251 -0.186878 0
1.20998 -0.196497 0
1.18624 -0.203843 0
1.15955 -0.158672 0
1.13859 -0.167405 0
1.11641 -0.174229 0
1.08316 -0.132533 0
1.06347 -0.140465 0
1.04261 -0.146794 0
1.18624 -0.203843 0
1.16307 -0.208995 0
1.13937 -0.212043 0
1.11641 -0.174229 0
1.09458 -0.179206 0
1.07216 -0.182387 0
1.04261 -0.146794 0
1.02193 -0.151554 0
1.00062 -0.154785 0
1.44748 -0.432276 0
1.41445 -0.42317 0
1.38304 -0.410477 0
1.40704 -0.3903 0
1.37648 -0.384215 0
1.34719 -0.37537 0
1.36568 -0.351627 0
1.33735 -0.348052 0
1.30992 -0.341737 0
1.38304 -0.410477 0
1.35614 -0.396345 0
1.33135 -0.380349 0
1.34719 -0.37537 0
1.3217 -0.364519 0
1.29802 -0.351795 0
1.30992 -0.341737 0
1.28545 -0.333293 0
1.26236 -0.32295 0
1.36568 -0.351627 0
1.33735 -0.348052 0
1.30992 -0.341737 0
1.31883 -0.311315 0
1.29197 -0.309529 0
1.26568 -0.305285 0
1.26243 -0.275543 0
1.23732 -0.275202 0
1.21266 -0.27267 0
1.30992 -0.341737 0
1.28545 -0.333293 0
1.26236 -0.32295 0
1.26568 -0.305285 0
1.24186 -0.299122 0
1.21919 -0.291197 0
1.21266 -0.27267 0
1.19004 -0.268328 0
1.16838 -0.262322 0
1.33135 -0.380349 0
1.31071 -0.363705 0
1.29271 -0.345879 0
1.29802 -0.351795 0
1.27804 -0.337814 0
1.26025 -0.322827 0
1.26236 -0.32295 0
1.24233 -0.311295 0
1.22412 -0.2985 0
1.29271 -0.345879 0
1.27749 -0.328287 0
1.26439 -0.310944 0
1.26025 -0.322827 0
1.24477 -0.307263 0
1.23141 -0.291083 0
1.22412 -0.2985 0
1.20792 -0.285024 0
1.19357 -0.27119 0
1.26236 -0.32295 0
1.24233 -0.311295 0
1.22412 -0.2985 0
1.21919 -0.291197 0
1.19928 -0.281994 0
1.18098 -0.271671 0
1.16838 -0.262322 0
1.14907 -0.255024 0
1.13115 -0.246593 0
1.22412 -0.2985 0
1.20792 -0.285024 0
1.19357 -0.27119 0
1.18098 -0.271671 0
1.16458 -0.260589 0
1.14987 -0.248806 0
1.13115 -0.246593 0
1.11481 -0.237272 0
1.09992 -0.227189 0
1.26243 -0.275543 0
1.23732 -0.275202 0
1.21266 -0.27267 0
1.20276 -0.242762 0
1.17919 -0.24325 0
1.15588 -0.241784 0
1.13937 -0.212043 0
1.11695 -0.213201 0
1.09465 -0.212626 0
1.21266 -0.27267 0
1.19004 -0.268328 0
1.16838 -0.262322 0
1.15588 -0.241784 0
1.13419 -0.238678 0
1.11323 -0.234029 0
1.09465 -0.212626 0
1.07367 -0.210557 0
1.05327 -0.207094 0
1.13937 -0.212043 0
1.11695 -0.213201 0
1.09465 -0.212626 0
1.07216 -0.182387 0
1.05072 -0.183951 0
1.02929 -0.184001 0
1.00062 -0.154785 0
0.980049 -0.156616 0
0.959405 -0.157139 0
1.09465 -0.212626 0
1.07367 -0.210557 0
1.05327 -0.207094 0
1.02929 -0.184001 0
1.00893 -0.18274 0
0.989036 -0.180236 0
0.959405 -0.157139 0
0.939617 -0.156506 0
0.920171 -0.154776 0
1.16838 -0.262322 0
1.14907 -0.255024 0
1.13115 -0.246593 0
1.11323 -0.234029 0
1.09424 -0.228171 0
1.07639 -0.221263 0
1.05327 -0.207094 0
1.03456 -0.202512 0
1.01683 -0.196949 0
1.13115 -0.246593 0
1.11481 -0.237272 0
1.09992 -0.227189 0
1.07639 -0.221263 0
1.05996 -0.213539 0
1.04482 -0.205046 0
1.01683 -0.196949 0
1.00041 -0.190578 0
0.985147 -0.183455 0
1.05327 -0.207094 0
1.03456 -0.202512 0
1.01683 -0.196949 0
0.989036 -0.180236 0
0.970552 -0.176715 0
0.952914 -0.172282 0
0.920171 -0.154776 0
0.901905 -0.15213 0
0.884357 -0.148668 0
1.01683 -0.196949 0
1.00041 -0.190578 0
0.985147 -0.183455 0
0.952914 -0.172282 0
0.936403 -0.167091 0
0.920911 -0.161202 0
0.884357 -0.148668 0
0.867815 -0.144515 0
0.852199 -0.139715 0
1.15092 -0.0851907 0
1.13665 -0.0991725 0
1.12014 -0.111831 0
1.06801 -0.0679713 0
1.05467 -0.0799183 0
1.03922 -0.0907815 0
0.982331 -0.0513559 0
0.969798 -0.0614441 0
0.955208 -0.0706632 0
1.12014 -0.111831 0
1.10253 -0.122966 0
1.08316 -0.132533 0
1.03922 -0.0907815 0
1.02268 -0.100387 0
1.00446 -0.108695 0
0.955208 -0.0706632 0
0.939557 -0.0788663 0
0.922264 -0.0860134 0
0.982331 -0.0513559 0
0.969798 -0.0614441 0
0.955208 -0.0706632 0
0.891211 -0.0366397 0
0.879684 -0.0448454 0
0.866124 -0.0523754 0
0.789307 -0.0231415 0
0.779287 -0.0294898 0
0.767149 -0.0353527 0
0.955208 -0.0706632 0
0.939557 -0.0788663 0
0.922264 -0.0860134 0
0.866124 -0.0523754 0
0.851461 -0.0591058 0
0.835153 -0.0650045 0
0.767149 -0.0353527 0
0.753845 -0.0406324 0
0.73884 -0.0452938 0
1.08316 -0.132533 0
1.06347 -0.140465 0
1.04261 -0.146794 0
1.00446 -0.108695 0
0.985833 -0.115646 0
0.966037 -0.121261 0
0.922264 -0.0860134 0
0.904487 -0.0920533 0
0.885553 -0.0969975 0
1.04261 -0.146794 0
1.02193 -0.151554 0
1.00062 -0.154785 0
0.966037 -0.121261 0
0.94628 -0.125567 0
0.925866 -0.128588 0
0.885553 -0.0969975 0
0.866556 -0.100865 0
0.846881 -0.103669 0
0.922264 -0.0860134 0
0.904487 -0.0920533 0
0.885553 -0.0969975 0
0.835153 -0.0650045 0
0.818275 -0.0700275 0
0.800217 -0.0741785 0
0.73884 -0.0452938 0
0.72316 -0.0493026 0
0.706245 -0.0526528 0
0.885553 -0.0969975 0
0.866556 -0.100865 0
0.846881 -0.103669 0
0.800217 -0.0741785 0
0.781994 -0.0774722 0
0.763052 -0.0799128 0
0.706245 -0.0526528 0
0.689054 -0.055357 0
0.671089 -0.0574093 0
0.789307 -0.0231415 0
0.779287 -0.0294898 0
0.767149 -0.0353527 0
0.667103 -0.0124587 0
0.659553 -0.0168591 0
0.649811 -0.0209517 0
0.508966 -0.00429416 0
0.504748 -0.00675351 0
0.498393 -0.00906408 0
0.767149 -0.0353527 0
0.753845 -0.0406324 0
0.73884 -0.0452938 0
0.649811 -0.0209517 0
0.638781 -0.0246641 0
0.625953 -0.027964 0
0.498393 -0.00906408 0
0.490723 -0.0111865 0
0.481276 -0.0130924 0
0.508966 -0.00429416 0
0.504748 -0.00675351 0
0.498393 -0.00906408 0
0.294649 -0.000974359 0
0.293668 -0.00174306 0
0.291018 -0.0024671 0
0 0 0
0 0 0
0 0 0
0.498393 -0.00906408 0
0.490723 -0.0111865 0
0.481276 -0.0130924 0
0.291018 -0.0024671 0
0.287476 -0.00313721 0
0.282483 -0.00373184 0
0 0 0
0 0 0
0 0 0
0.73884 -0.0452938 0
0.72316 -0.0493026 0
0.706245 -0.0526528 0
0.625953 -0.027964 0
0.612304 -0.0308273 0
0.597317 -0.0332398 0
0.481276 -0.0130924 0
0.470903 -0.0147745 0
0.459173 -0.0162093 0
0.706245 -0.0526528 0
0.689054 -0.055357 0
0.671089 -0.0574093 0
0.597317 -0.0332398 0