# vtk DataFile Version 3.0
#This file was generated by the deal.II library on 2025/1/3 at 16:56:17
ASCII
DATASET UNSTRUCTURED_GRID

POINTS 34560 double
1.1 1.1 0
1.03125 1.09531 0
0.9625 1.09063 0
1.09375 1.03125 0
1.02539 1.02686 0
0.957031 1.02246 0
1.0875 0.9625 0
1.01953 0.958398 0
0.951563 0.954297 0
0.9625 1.09063 0
0.89375 1.08594 0
0.825 1.08125 0
0.957031 1.02246 0
0.888672 1.01807 0
0.820312 1.01367 0
0.951563 0.954297 0
0.883594 0.950195 0
0.815625 0.946094 0
1.0875 0.9625 0
1.01953 0.958398 0
0.951563 0.954297 0
1.08125 0.89375 0
1.01367 0.889941 0
0.946094 0.886133 0
1.075 0.825 0
1.00781 0.821484 0
0.940625 0.817969 0
0.951563 0.954297 0
0.883594 0.950195 0
0.815625 0.946094 0
0.946094 0.886133 0
0.878516 0.882324 0
0.810938 0.878516 0
0.940625 0.817969 0
0.873438 0.814453 0
0.80625 0.810937 0
0.825 1.08125 0
0.75625 1.07656 0
0.6875 1.07187 0
0.820312 1.01367 0
0.751953 1.00928 0
0.683594 1.00488 0
0.815625 0.946094 0
0.747656 0.941992 0
0.679688 0.937891 0
0.6875 1.07187 0
0.61875 1.06719 0
0.55 1.0625 0
0.683594 1.00488 0
0.615234 1.00049 0
0.546875 0.996094 0
0.679688 0.937891 0
0.611719 0.933789 0
0.54375 0.929688 0
0.815625 0.946094 0
0.747656 0.941992 0
0.679688 0.937891 0
0.810938 0.878516 0
0.743359 0.874707 0
0.675781 0.870898 0
0.80625 0.810937 0
0.739063 0.807422 0
0.671875 0.803906 0
0.679688 0.937891 0
0.611719 0.933789 0
0.54375 0.929688 0
0.675781 0.870898 0
0.608203 0.86709 0
0.540625 0.863281 0
0.671875 0.803906 0
0.604688 0.800391 0
0.5375 0.796875 0
1.075 0.825 0
1.00781 0.821484 0
0.940625 0.817969 0
1.06875 0.75625 0
1.00195 0.753027 0
0.935156 0.749805 0
1.0625 0.6875 0
0.996094 0.68457 0
0.929688 0.681641 0
0.940625 0.817969 0
0.873438 0.814453 0
0.80625 0.810937 0
0.935156 0.749805 0
0.868359 0.746582 0
0.801563 0.743359 0
0.929688 0.681641 0
0.863281 0.678711 0
0.796875 0.675781 0
1.0625 0.6875 0
0.996094 0.68457 0
0.929688 0.681641 0
1.05625 0.61875 0
0.990234 0.616113 0
0.924219 0.613477 0
1.05 0.55 0
0.984375 0.547656 0
0.91875 0.545313 0
0.929688 0.681641 0
0.863281 0.678711 0
0.796875 0.675781 0
0.924219 0.613477 0
0.858203 0.61084 0
0.792188 0.608203 0
0.91875 0.545313 0
0.853125 0.542969 0
0.7875 0.540625 0
0.80625 0.810937 0
0.739063 0.807422 0
0.671875 0.803906 0
0.801563 0.743359 0
0.734766 0.740137 0
0.667969 0.736914 0
0.796875 0.675781 0
0.730469 0.672852 0
0.664062 0.669922 0
0.671875 0.803906 0
0.604688 0.800391 0
0.5375 0.796875 0
0.667969 0.736914 0
0.601172 0.733691 0
0.534375 0.730469 0
0.664062 0.669922 0
0.597656 0.666992 0
0.53125 0.664062 0
0.796875 0.675781 0
0.730469 0.672852 0
0.664062 0.669922 0
0.792188 0.608203 0
0.726172 0.605566 0
0.660156 0.60293 0
0.7875 0.540625 0
0.721875 0.538281 0
0.65625 0.535937 0
0.664062 0.669922 0
0.597656 0.666992 0
0.53125 0.664062 0
0.660156 0.60293 0
0.594141 0.600293 0
0.528125 0.597656 0
0.65625 0.535937 0
0.590625 0.533594 0
0.525 0.53125 0
0.55 1.0625 0
0.48125 1.05781 0
0.4125 1.05313 0
0.546875 0.996094 0
0.478516 0.991699 0
0.410156 0.987305 0
0.54375 0.929688 0
0.475781 0.925586 0
0.407813 0.921484 0
0.4125 1.05313 0
0.34375 1.04844 0
0.275 1.04375 0
0.410156 0.987305 0
0.341797 0.98291 0
0.273438 0.978516 0
0.407813 0.921484 0
0.339844 0.917383 0
0.271875 0.913281 0
0.54375 0.929688 0
0.475781 0.925586 0
0.407813 0.921484 0
0.540625 0.863281 0
0.473047 0.859473 0
0.405469 0.855664 0
0.5375 0.796875 0
0.470313 0.793359 0
0.403125 0.789844 0
0.407813 0.921484 0
0.339844 0.917383 0
0.271875 0.913281 0
0.405469 0.855664 0
0.337891 0.851855 0
0.270313 0.848047 0
0.403125 0.789844 0
0.335938 0.786328 0
0.26875 0.782813 0
0.275 1.04375 0
0.20625 1.03906 0
0.1375 1.03437 0
0.273438 0.978516 0
0.205078 0.974121 0
0.136719 0.969727 0
0.271875 0.913281 0
0.203906 0.90918 0
0.135938 0.905078 0
0.1375 1.03437 0
0.06875 1.02969 0
0 1.025 0
0.136719 0.969727 0
0.0683594 0.965332 0
0 0.960937 0
0.135938 0.905078 0
0.0679688 0.900977 0
0 0.896875 0
0.271875 0.913281 0
0.203906 0.90918 0
0.135938 0.905078 0
0.270313 0.848047 0
0.202734 0.844238 0
0.135156 0.84043 0
0.26875 0.782813 0
0.201563 0.779297 0
0.134375 0.775781 0
0.135938 0.905078 0
0.0679688 0.900977 0
0 0.896875 0
0.135156 0.84043 0
0.0675781 0.836621 0
0 0.832812 0
0.134375 0.775781 0
0.0671875 0.772266 0
0 0.76875 0
0.5375 0.796875 0
0.470313 0.793359 0
0.403125 0.789844 0
0.534375 0.730469 0
0.467578 0.727246 0
0.400781 0.724023 0
0.53125 0.664062 0
0.464844 0.661133 0
0.398438 0.658203 0
0.403125 0.789844 0
0.335938 0.786328 0
0.26875 0.782813 0
0.400781 0.724023 0
0.333984 0.720801 0
0.267188 0.717578 0
0.398438 0.658203 0
0.332031 0.655273 0
0.265625 0.652344 0
0.53125 0.664062 0
0.464844 0.661133 0
0.398438 0.658203 0
0.528125 0.597656 0
0.462109 0.59502 0
0.396094 0.592383 0
0.525 0.53125 0
0.459375 0.528906 0
0.39375 0.526563 0
0.398438 0.658203 0
0.332031 0.655273 0
0.265625 0.652344 0
0.396094 0.592383 0
0.330078 0.589746 0
0.264062 0.587109 0
0.39375 0.526563 0
0.328125 0.524219 0
0.2625 0.521875 0
0.26875 0.782813 0
0.201563 0.779297 0
0.134375 0.775781 0
0.267188 0.717578 0
0.200391 0.714355 0
0.133594 0.711133 0
0.265625 0.652344 0
0.199219 0.649414 0
0.132812 0.646484 0
0.134375 0.775781 0
0.0671875 0.772266 0
0 0.76875 0
0.133594 0.711133 0
0.0667969 0.70791 0
0 0.704687 0
0.132812 0.646484 0
0.0664062 0.643555 0
0 0.640625 0
0.265625 0.652344 0
0.199219 0.649414 0
0.132812 0.646484 0
0.264062 0.587109 0
0.198047 0.584473 0
0.132031 0.581836 0
0.2625 0.521875 0
0.196875 0.519531 0
0.13125 0.517187 0
0.132812 0.646484 0
0.0664062 0.643555 0
0 0.640625 0
0.132031 0.581836 0
0.0660156 0.579199 0
0 0.576562 0
0.13125 0.517187 0
0.065625 0.514844 0
0 0.5125 0
1.05 0.55 0
0.984375 0.547656 0
0.91875 0.545313 0
1.04375 0.48125 0
0.978516 0.479199 0
0.913281 0.477148 0
1.0375 0.4125 0
0.972656 0.410742 0
0.907813 0.408984 0
0.91875 0.545313 0
0.853125 0.542969 0
0.7875 0.540625 0
0.913281 0.477148 0
0.848047 0.475098 0
0.782813 0.473047 0
0.907813 0.408984 0
0.842969 0.407227 0
0.778125 0.405469 0
1.0375 0.4125 0
0.972656 0.410742 0
0.907813 0.408984 0
1.03125 0.34375 0
0.966797 0.342285 0
0.902344 0.34082 0
1.025 0.275 0
0.960937 0.273828 0
0.896875 0.272656 0
0.907813 0.408984 0
0.842969 0.407227 0
0.778125 0.405469 0
0.902344 0.34082 0
0.837891 0.339355 0
0.773438 0.337891 0
0.896875 0.272656 0
0.832812 0.271484 0
0.76875 0.270313 0
0.7875 0.540625 0
0.721875 0.538281 0
0.65625 0.535937 0
0.782813 0.473047 0
0.717578 0.470996 0
0.652344 0.468945 0
0.778125 0.405469 0
0.713281 0.403711 0
0.648438 0.401953 0
0.65625 0.535937 0
0.590625 0.533594 0
0.525 0.53125 0
0.652344 0.468945 0
0.587109 0.466895 0
0.521875 0.464844 0
0.648438 0.401953 0
0.583594 0.400195 0
0.51875 0.398438 0
0.778125 0.405469 0
0.713281 0.403711 0
0.648438 0.401953 0
0.773438 0.337891 0
0.708984 0.336426 0
0.644531 0.334961 0
0.76875 0.270313 0
0.704687 0.269141 0
0.640625 0.267969 0
0.648438 0.401953 0
0.583594 0.400195 0
0.51875 0.398438 0
0.644531 0.334961 0
0.580078 0.333496 0
0.515625 0.332031 0
0.640625 0.267969 0
0.576562 0.266797 0
0.5125 0.265625 0
1.025 0.275 0
0.960937 0.273828 0
0.896875 0.272656 0
1.01875 0.20625 0
0.955078 0.205371 0
0.891406 0.204492 0
1.0125 0.1375 0
0.949219 0.136914 0
0.885937 0.136328 0
0.896875 0.272656 0
0.832812 0.271484 0
0.76875 0.270313 0
0.891406 0.204492 0
0.827734 0.203613 0
0.764062 0.202734 0
0.885937 0.136328 0
0.822656 0.135742 0
0.759375 0.135156 0
1.0125 0.1375 0
0.949219 0.136914 0
0.885937 0.136328 0
1.00625 0.06875 0
0.943359 0.068457 0
0.880469 0.0681641 0
1 0 0
0.9375 0 0
0.875 0 0
0.885937 0.136328 0
0.822656 0.135742 0
0.759375 0.135156 0
0.880469 0.0681641 0
0.817578 0.0678711 0
0.754687 0.0675781 0
0.875 0 0
0.8125 0 0
0.75 0 0
0.76875 0.270313 0
0.704687 0.269141 0
0.640625 0.267969 0
0.764062 0.202734 0
0.700391 0.201855 0
0.636719 0.200977 0
0.759375 0.135156 0
0.696094 0.13457 0
0.632812 0.133984 0
0.640625 0.267969 0
0.576562 0.266797 0
0.5125 0.265625 0
0.636719 0.200977 0
0.573047 0.200098 0
0.509375 0.199219 0
0.632812 0.133984 0
0.569531 0.133398 0
0.50625 0.132812 0
0.759375 0.135156 0
0.696094 0.13457 0
0.632812 0.133984 0
0.754687 0.0675781 0
0.691797 0.0672852 0
0.628906 0.0669922 0
0.75 0 0
0.6875 0 0
0.625 0 0
0.632812 0.133984 0
0.569531 0.133398 0
0.50625 0.132812 0
0.628906 0.0669922 0
0.566016 0.0666992 0
0.503125 0.0664062 0
0.625 0 0
0.5625 0 0
0.5 0 0
0.525 0.53125 0
0.459375 0.528906 0
0.39375 0.526563 0
0.521875 0.464844 0
0.456641 0.462793 0
0.391406 0.460742 0
0.51875 0.398438 0
0.453906 0.39668 0
0.389063 0.394922 0
0.39375 0.526563 0
0.328125 0.524219 0
0.2625 0.521875 0
0.391406 0.460742 0
0.326172 0.458691 0
0.260938 0.456641 0
0.389063 0.394922 0
0.324219 0.393164 0
0.259375 0.391406 0
0.51875 0.398438 0
0.453906 0.39668 0
0.389063 0.394922 0
0.515625 0.332031 0
0.451172 0.330566 0
0.386719 0.329102 0
0.5125 0.265625 0
0.448437 0.264453 0
0.384375 0.263281 0
0.389063 0.394922 0
0.324219 0.393164 0
0.259375 0.391406 0
0.386719 0.329102 0
0.322266 0.327637 0
0.257812 0.326172 0
0.384375 0.263281 0
0.320312 0.262109 0
0.25625 0.260937 0
0.2625 0.521875 0
0.196875 0.519531 0
0.13125 0.517187 0
0.260938 0.456641 0
0.195703 0.45459 0
0.130469 0.452539 0
0.259375 0.391406 0
0.194531 0.389648 0
0.129688 0.387891 0
0.13125 0.517187 0
0.065625 0.514844 0
0 0.5125 0
0.130469 0.452539 0
0.0652344 0.450488 0
0 0.448437 0
0.129688 0.387891 0
0.0648438 0.386133 0
0 0.384375 0
0.259375 0.391406 0
0.194531 0.389648 0
0.129688 0.387891 0
0.257812 0.326172 0
0.193359 0.324707 0
0.128906 0.323242 0
0.25625 0.260937 0
0.192187 0.259766 0
0.128125 0.258594 0
0.129688 0.387891 0
0.0648438 0.386133 0
0 0.384375 0
0.128906 0.323242 0
0.0644531 0.321777 0
0 0.320312 0
0.128125 0.258594 0
0.0640625 0.257422 0
0 0.25625 0
0.5125 0.265625 0
0.448437 0.264453 0
0.384375 0.263281 0
0.509375 0.199219 0
0.445703 0.19834 0
0.382031 0.197461 0
0.50625 0.132812 0
0.442969 0.132227 0
0.379688 0.131641 0
0.384375 0.263281 0
0.320312 0.262109 0
0.25625 0.260937 0
0.382031 0.197461 0
0.318359 0.196582 0
0.254687 0.195703 0
[...]
POINT_DATA 34560
VECTORS v double
1.24164 -0.273781 0
1.22724 -0.249757 0
1.21459 -0.228119 0
1.20953 -0.257099 0
1.19328 -0.236335 0
1.17909 -0.216681 0
1.1727 -0.240104 0
1.15525 -0.221616 0
1.13944 -0.203889 0
1.21459 -0.228119 0
1.20353 -0.207353 0
1.19399 -0.188232 0
1.17909 -0.216681 0
1.16616 -0.197884 0
1.15514 -0.180218 0
1.13944 -0.203889 0
1.12516 -0.18686 0
1.11255 -0.170612 0
1.1727 -0.240104 0
1.15525 -0.221616 0
1.13944 -0.203889 0
1.12984 -0.220493 0
1.11121 -0.204442 0
1.09427 -0.188904 0
1.08073 -0.201523 0
1.06153 -0.187603 0
1.04384 -0.173955 0
1.13944 -0.203889 0
1.12516 -0.18686 0
1.11255 -0.170612 0
1.09427 -0.188904 0
1.07882 -0.173797 0
1.06503 -0.15926 0
1.04384 -0.173955 0
1.02766 -0.16056 0
1.01303 -0.147543 0
1.19399 -0.188232 0
1.18517 -0.170004 0
1.17762 -0.152893 0
1.15514 -0.180218 0
1.14466 -0.163246 0
1.13582 -0.147188 0
1.11255 -0.170612 0
1.10078 -0.154958 0
1.09055 -0.139974 0
1.17762 -0.152893 0
1.17025 -0.136475 0
1.16389 -0.120757 0
1.13582 -0.147188 0
1.12707 -0.131617 0
1.11965 -0.116659 0
1.09055 -0.139974 0
1.08068 -0.125397 0
1.07215 -0.111285 0
1.11255 -0.170612 0
1.10078 -0.154958 0
1.09055 -0.139974 0
1.06503 -0.15926 0
1.05219 -0.145095 0
1.04088 -0.131434 0
1.01303 -0.147543 0
0.999436 -0.134764 0
0.987318 -0.122345 0
1.09055 -0.139974 0
1.08068 -0.125397 0
1.07215 -0.111285 0
1.04088 -0.131434 0
1.03012 -0.118032 0
1.02071 -0.104969 0
0.987318 -0.122345 0
0.975878 -0.110086 0
0.965773 -0.0980637 0
1.08073 -0.201523 0
1.06153 -0.187603 0
1.04384 -0.173955 0
1.02642 -0.181867 0
1.00687 -0.169925 0
0.98871 -0.158097 0
0.967394 -0.162661 0
0.947715 -0.152442 0
0.929278 -0.142228 0
1.04384 -0.173955 0
1.02766 -0.16056 0
1.01303 -0.147543 0
0.98871 -0.158097 0
0.972004 -0.146368 0
0.956758 -0.13488 0
0.929278 -0.142228 0
0.912231 -0.132026 0
0.896542 -0.121964 0
0.967394 -0.162661 0
0.947715 -0.152442 0
0.929278 -0.142228 0
0.903623 -0.142744 0
0.883928 -0.134158 0
0.865392 -0.125523 0
0.835209 -0.123536 0
0.81572 -0.116394 0
0.797274 -0.109162 0
0.929278 -0.142228 0
0.912231 -0.132026 0
0.896542 -0.121964 0
0.865392 -0.125523 0
0.848162 -0.116837 0
0.832213 -0.108215 0
0.797274 -0.109162 0
0.780051 -0.101845 0
0.764017 -0.0945433 0
1.01303 -0.147543 0
0.999436 -0.134764 0
0.987318 -0.122345 0
0.956758 -0.13488 0
0.942585 -0.123519 0
0.929834 -0.1124 0
0.896542 -0.121964 0
0.881952 -0.111949 0
0.868722 -0.102089 0
0.987318 -0.122345 0
0.975878 -0.110086 0
0.965773 -0.0980637 0
0.929834 -0.1124 0
0.917867 -0.101358 0
0.907216 -0.0904642 0
0.868722 -0.102089 0
0.856355 -0.0922436 0
0.845282 -0.0824796 0
0.896542 -0.121964 0
0.881952 -0.111949 0
0.868722 -0.102089 0
0.832213 -0.108215 0
0.817357 -0.099577 0
0.803809 -0.0910232 0
0.764017 -0.0945433 0
0.749052 -0.0871915 0
0.73533 -0.0798776 0
0.868722 -0.102089 0
0.856355 -0.0922436 0
0.845282 -0.0824796 0
0.803809 -0.0910232 0
0.791173 -0.0824307 0
0.779809 -0.073863 0
0.73533 -0.0798776 0
0.722549 -0.0724964 0
0.711006 -0.0651013 0
1.16389 -0.120757 0
1.15761 -0.10544 0
1.15215 -0.090472 0
1.11965 -0.116659 0
1.11231 -0.101965 0
1.10605 -0.0875918 0
1.07215 -0.111285 0
1.0639 -0.0973787 0
1.05682 -0.0837132 0
1.15215 -0.090472 0
1.14661 -0.0756372 0
1.14173 -0.0608613 0
1.10605 -0.0875918 0
1.09975 -0.0732674 0
1.09433 -0.058994 0
1.05682 -0.0837132 0
1.04988 -0.0700606 0
1.04392 -0.0564209 0
1.07215 -0.111285 0
1.0639 -0.0973787 0
1.05682 -0.0837132 0
1.02071 -0.104969 0
1.01177 -0.0920147 0
1.00402 -0.0792239 0
0.965773 -0.0980637 0
0.956279 -0.0860882 0
0.947998 -0.0742088 0
1.05682 -0.0837132 0
1.04988 -0.0700606 0
1.04392 -0.0564209 0
1.00402 -0.0792239 0
0.996598 -0.0663916 0
0.990217 -0.0535235 0
0.947998 -0.0742088 0
0.940189 -0.0622502 0
0.933469 -0.0502196 0
1.14173 -0.0608613 0
1.13695 -0.0459773 0
1.13276 -0.0309214 0
1.09433 -0.058994 0
1.08909 -0.0445832 0
1.08463 -0.0300117 0
1.04392 -0.0564209 0
1.03829 -0.0426287 0
1.03355 -0.0286766 0
1.13276 -0.0309214 0
1.12861 -0.0156009 0
1.125 0 0
1.08463 -0.0300117 0
1.0803 -0.0151673 0
1.07666 0 0
1.03355 -0.0286766 0
1.02906 -0.0144669 0
1.02539 0 0
1.04392 -0.0564209 0
1.03829 -0.0426287 0
1.03355 -0.0286766 0
0.990217 -0.0535235 0
0.984311 -0.040475 0
0.979376 -0.0272554 0
0.933469 -0.0502196 0
0.927347 -0.0379965 0
0.922258 -0.0255898 0
1.03355 -0.0286766 0
1.02906 -0.0144669 0
1.02539 0 0
0.979376 -0.0272554 0
0.974834 -0.013774 0
0.971191 0 0
0.922258 -0.0255898 0
0.917676 -0.0129259 0
0.914062 0 0
0.965773 -0.0980637 0
0.956279 -0.0860882 0
0.947998 -0.0742088 0
0.907216 -0.0904642 0
0.897291 -0.079556 0
0.888592 -0.0686837 0
0.845282 -0.0824796 0
0.835027 -0.0726581 0
0.826004 -0.0628247 0
0.947998 -0.0742088 0
0.940189 -0.0622502 0
0.933469 -0.0502196 0
0.888592 -0.0686837 0
0.880492 -0.057694 0
0.87352 -0.0465986 0
0.826004 -0.0628247 0
0.817689 -0.0528485 0
0.810532 -0.0427389 0
0.845282 -0.0824796 0
0.835027 -0.0726581 0
0.826004 -0.0628247 0
0.779809 -0.073863 0
0.769329 -0.065197 0
0.760088 -0.0564776 0
0.711006 -0.0651013 0
0.700394 -0.0575862 0
0.691015 -0.0499893 0
0.826004 -0.0628247 0
0.817689 -0.0528485 0
0.810532 -0.0427389 0
0.760088 -0.0564776 0
0.751638 -0.047588 0
0.744374 -0.0385405 0
0.691015 -0.0499893 0
0.682498 -0.0422093 0
0.675185 -0.0342549 0
0.933469 -0.0502196 0
0.927347 -0.0379965 0
0.922258 -0.0255898 0
0.87352 -0.0465986 0
0.867253 -0.0352906 0
0.862075 -0.0237853 0
0.810532 -0.0427389 0
0.804173 -0.0324057 0
0.79895 -0.0218642 0
0.922258 -0.0255898 0
0.917676 -0.0129259 0
0.914062 0 0
0.862075 -0.0237853 0
0.857521 -0.012022 0
0.854004 0 0
0.79895 -0.0218642 0
0.79444 -0.0110661 0
0.791016 0 0
0.810532 -0.0427389 0
0.804173 -0.0324057 0
0.79895 -0.0218642 0
0.744374 -0.0385405 0
0.737985 -0.0292551 0
0.732772 -0.0197518 0
0.675185 -0.0342549 0
0.668812 -0.0260578 0
0.66365 -0.0176348 0
0.79895 -0.0218642 0
0.79444 -0.0110661 0
0.791016 0 0
0.732772 -0.0197518 0
0.728363 -0.00999247 0
0.725098 0 0
0.66365 -0.0176348 0
0.65936 -0.00895703 0
0.65625 0 0
0.835209 -0.123536 0
0.81572 -0.116394 0
0.797274 -0.109162 0
0.762466 -0.104096 0
0.743267 -0.0982685 0
0.725037 -0.0923476 0
0.685147 -0.0853268 0
0.666411 -0.0806938 0
0.648561 -0.0759696 0
0.797274 -0.109162 0
0.780051 -0.101845 0
0.764017 -0.0945433 0
0.725037 -0.0923476 0
0.707935 -0.0863305 0
0.691951 -0.0803087 0
0.648561 -0.0759696 0
0.631755 -0.0711526 0
0.61599 -0.0663216 0
0.685147 -0.0853268 0
0.666411 -0.0806938 0
0.648561 -0.0759696 0
0.603033 -0.0665893 0
0.584894 -0.0630508 0
0.567595 -0.0594409 0
0.514841 -0.0487489 0
0.497625 -0.0462258 0
0.481184 -0.0436465 0
0.648561 -0.0759696 0
0.631755 -0.0711526 0
0.61599 -0.0663216 0
0.567595 -0.0594409 0
0.551254 -0.0557512 0
0.535893 -0.0520498 0
0.481184 -0.0436465 0
0.465621 -0.0410015 0
0.450967 -0.0383491 0
0.764017 -0.0945433 0
0.749052 -0.0871915 0
0.73533 -0.0798776 0
0.691951 -0.0803087 0
0.676995 -0.0742212 0
0.663226 -0.0681453 0
0.61599 -0.0663216 0
0.601204 -0.061423 0
0.587539 -0.0565236 0
0.73533 -0.0798776 0
0.722549 -0.0724964 0
0.711006 -0.0651013 0
0.663226 -0.0681453 0
0.650403 -0.0619862 0
0.638786 -0.0557899 0
0.587539 -0.0565236 0
0.574808 -0.05154 0
0.563237 -0.0465096 0
0.61599 -0.0663216 0
0.601204 -0.061423 0
0.587539 -0.0565236 0
0.535893 -0.0520498 0
0.52145 -0.0482879 0
0.508065 -0.0445238 0
0.450967 -0.0383491 0
0.437161 -0.0356471 0
0.424334 -0.0329449 0
0.587539 -0.0565236 0
0.574808 -0.05154 0
0.563237 -0.0465096 0
0.508065 -0.0445238 0
0.495579 -0.0406844 0
0.484202 -0.0368002 0
0.424334 -0.0329449 0
0.41235 -0.0301819 0
0.401402 -0.0273847 0
0.514841 -0.0487489 0
0.497625 -0.0462258 0
0.481184 -0.0436465 0
0.418534 -0.0316652 0
0.402725 -0.030048 0
0.38764 -0.0283977 0
0.308429 -0.0164745 0
0.29517 -0.0156668 0
0.282503 -0.0148441 0
0.481184 -0.0436465 0
0.465621 -0.0410015 0
0.450967 -0.0383491 0
0.38764 -0.0283977 0
0.373328 -0.0266988 0
0.359849 -0.0249997 0
0.282503 -0.0148441 0
0.270467 -0.013987 0
0.259126 -0.0131325 0
0.308429 -0.0164745 0
0.29517 -0.0156668 0
0.282503 -0.0148441 0
0.174601 -0.00486602 0
0.165964 -0.00461584 0
0.157743 -0.00437218 0
0 0 0
0 0 0
0 0 0
0.282503 -0.0148441 0
0.270467 -0.013987 0
0.259126 -0.0131325 0
0.157743 -0.00437218 0
0.149894 -0.00411284 0
0.142525 -0.00386604 0
0 0 0
0 0 0
0 0 0
0.450967 -0.0383491 0
0.437161 -0.0356471 0
0.424334 -0.0329449 0
0.359849 -0.0249997 0
0.347125 -0.0232632 0
0.335291 -0.0215303 0
0.259126 -0.0131325 0
0.248403 -0.0122487 0
0.238421 -0.0113699 0
0.424334 -0.0329449 0
0.41235 -0.0301819 0
0.401402 -0.0273847 0
0.335291 -0.0215303 0
0.324213 -0.0197521 0
0.314075 -0.0179544 0
0.238421 -0.0113699 0
0.229062 -0.0104612 0
0.220486 -0.00954697 0
0.259126 -0.0131325 0
0.248403 -0.0122487 0
0.238421 -0.0113699 0
0.142525 -0.00386604 0
0.135525 -0.00359934 0
0.129038 -0.00334401 0
0 0 0
0 0 0
0 0 0
0.238421 -0.0113699 0
0.229062 -0.0104612 0
0.220486 -0.00954697 0
0.129038 -0.00334401 0
0.122921 -0.00306908 0
0.11735 -0.00280225 0
0 0 0
0 0 0
0 0 0
0.711006 -0.0651013 0
0.700394 -0.0575862 0
0.691015 -0.0499893 0
0.638786 -0.0557899 0
0.628127 -0.04946 0
0.618692 -0.0430303 0
0.563237 -0.0465096 0
0.552628 -0.0413467 0
0.543222 -0.0360791 0
0.691015 -0.0499893 0
0.682498 -0.0422093 0
0.675185 -0.0342549 0
0.618692 -0.0430303 0
0.61017 -0.0364085 0
0.602868 -0.0296019 0
0.543222 -0.0360791 0
0.534762 -0.0306238 0
0.527527 -0.0249827 0
0.563237 -0.0465096 0
0.552628 -0.0413467 0
0.543222 -0.0360791 0
0.484202 -0.0368002 0
0.473763 -0.0327949 0
0.464493 -0.0286923 0
0.401402 -0.0273847 0
0.39134 -0.0244891 0
0.382383 -0.0215138 0
0.543222 -0.0360791 0
0.534762 -0.0306238 0
0.527527 -0.0249827 0
0.464493 -0.0286923 0
0.456178 -0.0244171 0
0.449079 -0.0199662 0
0.382383 -0.0215138 0
0.374358 -0.0183929 0
0.367514 -0.0151204 0
0.675185 -0.0342549 0
0.668812 -0.0260578 0
0.66365 -0.0176348 0
0.602868 -0.0296019 0
0.596557 -0.0225492 0
0.591491 -0.0152693 0
0.527527 -0.0249827 0
0.52132 -0.0191014 0
0.516384 -0.0129944 0
0.66365 -0.0176348 0
0.65936 -0.00895703 0
0.65625 0 0
0.591491 -0.0152693 0
0.587366 -0.00773815 0
0.584473 0 0
0.516384 -0.0129944 0
0.512445 -0.00664365 0
0.509766 0 0
0.527527 -0.0249827 0
0.52132 -0.0191014 0
0.516384 -0.0129944 0
0.449079 -0.0199662 0
0.443026 -0.0152886 0
0.438255 -0.0104041 0
0.367514 -0.0151204 0
0.361703 -0.0116497 0
0.357161 -0.00798725 0
0.516384 -0.0129944 0
0.512445 -0.00664365 0
0.509766 0 0
0.438255 -0.0104041 0
0.434538 -0.00529186 0
0.432129 0 0
0.357161 -0.00798725 0
0.353702 -0.00412973 0
0.351562 0 0
0.401402 -0.0273847 0
0.39134 -0.0244891 0
0.382383 -0.0215138 0
0.314075 -0.0179544 0
0.304733 -0.0160858 0
0.296404 -0.0141633 0
0.220486 -0.00954697 0
0.212566 -0.00859148 0
0.205492 -0.0076096 0
0.382383 -0.0215138 0
0.374358 -0.0183929 0
0.367514 -0.0151204 0
0.296404 -0.0141633 0
0.288933 -0.0121344 0
0.282569 -0.00999488 0
0.205492 -0.0076096 0
0.199133 -0.00656654 0
0.193718 -0.00546684 0
0.220486 -0.00954697 0
0.212566 -0.00859148 0
0.205492 -0.0076096 0
0.11735 -0.00280225 0
0.112167 -0.00251609 0
0.107577 -0.00222788 0
0 0 0
0 0 0
0 0 0
0.205492 -0.0076096 0
0.199133 -0.00656654 0
0.193718 -0.00546684 0
0.107577 -0.00222788 0
0.103408 -0.0019102 0
0.0998876 -0.00158311 0
0 0 0
0 0 0
0 0 0
0.367514 -0.0151204 0
0.361703 -0.0116497 0
0.357161 -0.00798725 0
0.282569 -0.00999488 0
0.277175 -0.00769853 0
0.273005 -0.00525349 0
0.193718 -0.00546684 0
0.189139 -0.00427739 0
0.185636 -0.00297506 0
0.357161 -0.00798725 0
0.353702 -0.00412973 0
0.351562 0 0
0.273005 -0.00525349 0
0.269886 -0.00264639 0
0.268066 0 0
0.185636 -0.00297506 0
0.183065 -0.00157173 0
0.181641 0 0
0.193718 -0.00546684 0
0.189139 -0.00427739 0
0.185636 -0.00297506 0
0.0998876 -0.00158311 0
0.0968751 -0.00123246 0
0.0946741 -0.000833366 0
0 0 0
0 0 0
0 0 0
0.185636 -0.00297506 0
0.183065 -0.00157173 0
0.181641 0 0
0.0946741 -0.000833366 0
0.0930372 -0.000351364 0
0.0922852 0 0
0 0 0
0 0 0
0 0 0
1.71016 -0.32172 0
1.67552 -0.352197 0
1.63653 -0.377238 0
1.63843 -0.276964 0
1.60785 -0.304972 0
1.5735 -0.32813 0
1.56304 -0.239629 0
1.53754 -0.265039 0
1.50844 -0.286489 0
1.63653 -0.377238 0
1.59675 -0.395325 0
1.55421 -0.407404 0
1.5735 -0.32813 0
1.5384 -0.345961 0
1.50081 -0.358549 0
1.50844 -0.286489 0
1.47856 -0.303617 0
1.44625 -0.316306 0
1.56304 -0.239629 0
1.53754 -0.265039 0
1.50844 -0.286489 0
1.49244 -0.209766 0
1.47035 -0.231408 0
1.44515 -0.249932 0
1.4183 -0.180664 0
1.39828 -0.199823 0
1.37551 -0.216406 0
1.50844 -0.286489 0
1.47856 -0.303617 0
1.44625 -0.316306 0
1.44515 -0.249932 0
1.41891 -0.264959 0
1.39043 -0.276447 0
1.37551 -0.216406 0
1.35184 -0.230145 0
1.32617 -0.240949 0
1.55421 -0.407404 0
1.51456 -0.41326 0
1.47399 -0.413377 0
1.50081 -0.358549 0
1.46553 -0.3659 0
1.42926 -0.368665 0
1.44625 -0.316306 0
1.41549 -0.324663 0
1.38365 -0.328906 0
1.47399 -0.413377 0
1.43798 -0.409152 0
1.40243 -0.400678 0
1.42926 -0.368665 0
1.39662 -0.367274 0
1.36423 -0.362234 0
1.38365 -0.328906 0
1.35439 -0.329445 0
1.32512 -0.326609 0
1.44625 -0.316306 0
1.41549 -0.324663 0
1.38365 -0.328906 0
1.39043 -0.276447 0
1.36281 -0.284385 0
1.334 -0.288964 0
1.32617 -0.240949 0
1.3011 -0.248806 0
1.27495 -0.253848 0
1.38365 -0.328906 0
1.35439 -0.329445 0
1.32512 -0.326609 0
1.334 -0.288964 0
1.30703 -0.290492 0
1.27983 -0.289187 0
1.27495 -0.253848 0
1.25019 -0.256261 0
1.22518 -0.256217 0
1.4183 -0.180664 0
1.39828 -0.199823 0
1.37551 -0.216406 0
1.34224 -0.156357 0
1.3243 -0.173238 0
1.30389 -0.187962 0
1.26636 -0.133255 0
1.25002 -0.14816 0
1.23142 -0.161287 0
1.37551 -0.216406 0
1.35184 -0.230145 0
1.32617 -0.240949 0
1.30389 -0.187962 0
1.28263 -0.200284 0
1.25954 -0.210147 0
1.23142 -0.161287 0
1.21198 -0.172406 0
1.19083 -0.181464 0
1.26636 -0.133255 0
1.25002 -0.14816 0
1.23142 -0.161287 0
1.18921 -0.112662 0
1.17408 -0.125534 0
1.15689 -0.136938 0
1.10994 -0.0930067 0
1.09566 -0.104166 0
1.07946 -0.114128 0
1.23142 -0.161287 0
1.21198 -0.172406 0
1.19083 -0.181464 0
1.15689 -0.136938 0
1.13886 -0.146682 0
1.11925 -0.154719 0
1.07946 -0.114128 0
1.0625 -0.122724 0
1.04407 -0.129905 0
1.32617 -0.240949 0
1.3011 -0.248806 0
1.27495 -0.253848 0
1.25954 -0.210147 0
1.2368 -0.21752 0
1.213 -0.222496 0
1.19083 -0.181464 0
1.16984 -0.188411 0
1.14781 -0.19332 0
1.27495 -0.253848 0
1.25019 -0.256261 0
1.22518 -0.256217 0
1.213 -0.222496 0
1.19022 -0.225218 0
1.16708 -0.225806 0
1.14781 -0.19332 0
1.12651 -0.196285 0
1.1048 -0.197405 0
1.19083 -0.181464 0
1.16984 -0.188411 0
1.14781 -0.19332 0
1.11925 -0.154719 0
1.09965 -0.161008 0
1.07904 -0.16559 0
1.04407 -0.129905 0
1.02557 -0.135628 0
1.00612 -0.139919 0
1.14781 -0.19332 0
1.12651 -0.196285 0
1.1048 -0.197405 0
1.07904 -0.16559 0
1.05895 -0.168546 0
1.03842 -0.169931 0
1.00612 -0.139919 0
0.987039 -0.142831 0
0.967509 -0.144406 0
1.40243 -0.400678 0
1.37228 -0.389617 0
1.34381 -0.375401 0
1.36423 -0.362234 0
1.3364 -0.354192 0
1.30987 -0.343776 0
1.32512 -0.326609 0
1.29929 -0.321075 0
1.27439 -0.313171 0
1.34381 -0.375401 0
1.31977 -0.360074 0
1.29787 -0.343262 0
1.30987 -0.343776 0
1.28707 -0.331689 0
1.26611 -0.318081 0
1.27439 -0.313171 0
1.25245 -0.303479 0
1.23191 -0.292239 0
1.32512 -0.326609 0
1.29929 -0.321075 0
1.27439 -0.313171 0
1.27983 -0.289187 0
1.25534 -0.285525 0
1.23149 -0.279743 0
1.22518 -0.256217 0
1.20234 -0.25405 0
1.18001 -0.250001 0
1.27439 -0.313171 0
1.25245 -0.303479 0
1.23191 -0.292239 0
1.23149 -0.279743 0
1.21012 -0.272352 0
1.18992 -0.263535 0
1.18001 -0.250001 0
1.15972 -0.244434 0
1.1404 -0.237511 0
1.29787 -0.343262 0
1.28001 -0.326123 0
1.26477 -0.308183 0
1.26611 -0.318081 0
1.24872 -0.303531 0
1.23349 -0.288337 0
1.23191 -0.292239 0
1.21433 -0.280014 0
1.19854 -0.266998 0
1.26477 -0.308183 0
1.25216 -0.290713 0
1.24164 -0.273781 0
1.23349 -0.288337 0
1.22047 -0.272865 0
1.20953 -0.257099 0
1.19854 -0.266998 0
1.18472 -0.25359 0
1.1727 -0.240104 0
1.23191 -0.292239 0
1.21433 -0.280014 0
1.19854 -0.266998 0
1.18992 -0.263535 0
1.17238 -0.253738 0
1.15644 -0.243128 0
1.1404 -0.237511 0
1.12335 -0.229574 0
1.10765 -0.220799 0
1.19854 -0.266998 0
1.18472 -0.25359 0
1.1727 -0.240104 0
1.15644 -0.243128 0
1.14232 -0.232015 0
1.12984 -0.220493 0
1.10765 -0.220799 0
1.09349 -0.2114 0
1.08073 -0.201523 0
1.22518 -0.256217 0
1.20234 -0.25405 0
1.18001 -0.250001 0
1.16708 -0.225806 0
1.14565 -0.224544 0
1.12454 -0.221615 0
1.1048 -0.197405 0
1.08443 -0.196894 0
1.06426 -0.194913 0
1.18001 -0.250001 0
1.15972 -0.244434 0
1.1404 -0.237511 0
1.12454 -0.221615 0
1.10506 -0.217321 0
1.08634 -0.211778 0
1.06426 -0.194913 0
1.04543 -0.191696 0
1.02722 -0.187353 0
1.1048 -0.197405 0
1.08443 -0.196894 0
1.06426 -0.194913 0
1.03842 -0.169931 0
1.01895 -0.169926 0
0.999581 -0.168643 0
0.967509 -0.144406 0
0.948807 -0.144782 0
0.930146 -0.144055 0
1.06426 -0.194913 0
1.04543 -0.191696 0
1.02722 -0.187353 0
0.999581 -0.168643 0
0.981323 -0.16628 0
0.963557 -0.162917 0
0.930146 -0.144055 0
0.912394 -0.142377 0
0.895035 -0.13982 0
1.1404 -0.237511 0
1.12335 -0.229574 0
1.10765 -0.220799 0
1.08634 -0.211778 0
1.06952 -0.205293 0
1.05383 -0.198034 0
1.02722 -0.187353 0
1.01063 -0.182139 0
0.995022 -0.176199 0
1.10765 -0.220799 0
1.09349 -0.2114 0
1.08073 -0.201523 0
1.05383 -0.198034 0
1.03951 -0.190206 0
1.02642 -0.181867 0
0.995022 -0.176199 0
0.980657 -0.169683 0
0.967394 -0.162661 0
1.02722 -0.187353 0
1.01063 -0.182139 0
0.995022 -0.176199 0
0.963557 -0.162917 0
0.94717 -0.158766 0
0.931613 -0.153941 0
0.895035 -0.13982 0
0.878842 -0.136553 0
0.863362 -0.132686 0
0.995022 -0.176199 0
0.980657 -0.169683 0
0.967394 -0.162661 0
0.931613 -0.153941 0
0.917139 -0.148578 0
0.903623 -0.142744 0
0.863362 -0.132686 0
0.848852 -0.12833 0
0.835209 -0.123536 0
1.10994 -0.0930067 0
1.09566 -0.104166 0
1.07946 -0.114128 0
1.02905 -0.0754587 0
1.01541 -0.0849395 0
1.00003 -0.0934415 0
0.945287 -0.058327 0
0.932175 -0.0663218 0
0.917384 -0.0735309 0
1.07946 -0.114128 0
1.0625 -0.122724 0
1.04407 -0.129905 0
1.00003 -0.0934415 0
0.983904 -0.100818 0
0.966404 -0.107026 0
0.917384 -0.0735309 0
0.901888 -0.0798303 0
0.885078 -0.0851791 0
0.945287 -0.058327 0
0.932175 -0.0663218 0
0.917384 -0.0735309 0
0.856103 -0.0426499 0
0.843687 -0.0491576 0
0.829636 -0.0550518 0
0.756151 -0.0279483 0
0.744941 -0.0330145 0
0.732035 -0.037635 0
0.917384 -0.0735309 0
0.901888 -0.0798303 0
0.885078 -0.0851791 0
0.829636 -0.0550518 0
0.814855 -0.0602276 0
0.798781 -0.0646535 0
0.732035 -0.037635 0
0.718353 -0.041727 0
0.703341 -0.0452589 0
1.04407 -0.129905 0
1.02557 -0.135628 0
1.00612 -0.139919 0
0.966404 -0.107026 0
0.948753 -0.112026 0
0.930192 -0.115837 0
0.885078 -0.0851791 0
0.868067 -0.0895419 0
0.850175 -0.09293 0
1.00612 -0.139919 0
0.987039 -0.142831 0
0.967509 -0.144406 0
0.930192 -0.115837 0
0.911872 -0.118499 0
0.893094 -0.120043 0
0.850175 -0.09293 0
0.832441 -0.0953729 0
0.814252 -0.0968907 0
0.885078 -0.0851791 0
0.868067 -0.0895419 0
0.850175 -0.09293 0
0.798781 -0.0646535 0
0.782437 -0.0682987 0
0.765211 -0.0711673 0
0.703341 -0.0452589 0
0.687973 -0.0482062 0
0.671689 -0.0505657 0
0.850175 -0.09293 0
0.832441 -0.0953729 0
0.814252 -0.0968907 0
0.765211 -0.0711673 0
0.748062 -0.0732841 0
0.730436 -0.0746584 0
0.671689 -0.0505657 0
0.655389 -0.0523573 0
0.638577 -0.0535813 0
0.756151 -0.0279483 0
0.744941 -0.0330145 0
0.732035 -0.037635 0
0.636353 -0.0156973 0
0.627385 -0.0192441 0
0.616644 -0.0225036 0
0.48238 -0.00600427 0
0.476782 -0.00802036 0
0.469419 -0.00989519 0
0.732035 -0.037635 0
0.718353 -0.041727 0
0.703341 -0.0452589 0
0.616644 -0.0225036 0
0.605015 -0.0254125 0
0.591967 -0.0279449 0
0.469419 -0.00989519 0
0.461101 -0.0115935 0
0.451354 -0.0130924 0
0.48238 -0.00600427 0
0.476782 -0.00802036 0
0.469419 -0.00989519 0
0.276767 -0.0014088 0
0.274969 -0.00204769 0
0.271732 -0.00264542 0
0 0 0
0 0 0
0 0 0
0.469419 -0.00989519 0
0.461101 -0.0115935 0
0.451354 -0.0130924 0
0.271732 -0.00264542 0
0.267833 -0.00319025 0
0.262708 -0.0036661 0
0 0 0
0 0 0
0 0 0
0.703341 -0.0452589 0
0.687973 -0.0482062 0
0.671689 -0.0505657 0
0.591967 -0.0279449 0
0.578431 -0.0300829 0
0.563889 -0.0318173 0
0.451354 -0.0130924 0
0.440992 -0.0143868 0