# vtk DataFile Version 3.0
#This file was generated by the deal.II library on 2025/1/3 at 13:21:27
ASCII
DATASET UNSTRUCTURED_GRID

POINTS 34560 double
1.1 1.1 0
1.03125 1.09531 0
0.9625 1.09063 0
1.09375 1.03125 0
1.02539 1.02686 0
0.957031 1.02246 0
1.0875 0.9625 0
1.01953 0.958398 0
0.951563 0.954297 0
0.9625 1.09063 0
0.89375 1.08594 0
0.825 1.08125 0
0.957031 1.02246 0
0.888672 1.01807 0
0.820312 1.01367 0
0.951563 0.954297 0
0.883594 0.950195 0
0.815625 0.946094 0
1.0875 0.9625 0
1.01953 0.958398 0
0.951563 0.954297 0
1.08125 0.89375 0
1.01367 0.889941 0
0.946094 0.886133 0
1.075 0.825 0
1.00781 0.821484 0
0.940625 0.817969 0
0.951563 0.954297 0
0.883594 0.950195 0
0.815625 0.946094 0
0.946094 0.886133 0
0.878516 0.882324 0
0.810938 0.878516 0
0.940625 0.817969 0
0.873438 0.814453 0
0.80625 0.810937 0
0.825 1.08125 0
0.75625 1.07656 0
0.6875 1.07187 0
0.820312 1.01367 0
0.751953 1.00928 0
0.683594 1.00488 0
0.815625 0.946094 0
0.747656 0.941992 0
0.679688 0.937891 0
0.6875 1.07187 0
0.61875 1.06719 0
0.55 1.0625 0
0.683594 1.00488 0
0.615234 1.00049 0
0.546875 0.996094 0
0.679688 0.937891 0
0.611719 0.933789 0
0.54375 0.929688 0
0.815625 0.946094 0
0.747656 0.941992 0
0.679688 0.937891 0
0.810938 0.878516 0
0.743359 0.874707 0
0.675781 0.870898 0
0.80625 0.810937 0
0.739063 0.807422 0
0.671875 0.803906 0
0.679688 0.937891 0
0.611719 0.933789 0
0.54375 0.929688 0
0.675781 0.870898 0
0.608203 0.86709 0
0.540625 0.863281 0
0.671875 0.803906 0
0.604688 0.800391 0
0.5375 0.796875 0
1.075 0.825 0
1.00781 0.821484 0
0.940625 0.817969 0
1.06875 0.75625 0
1.00195 0.753027 0
0.935156 0.749805 0
1.0625 0.6875 0
0.996094 0.68457 0
0.929688 0.681641 0
0.940625 0.817969 0
0.873438 0.814453 0
0.80625 0.810937 0
0.935156 0.749805 0
0.868359 0.746582 0
0.801563 0.743359 0
0.929688 0.681641 0
0.863281 0.678711 0
0.796875 0.675781 0
1.0625 0.6875 0
0.996094 0.68457 0
0.929688 0.681641 0
1.05625 0.61875 0
0.990234 0.616113 0
0.924219 0.613477 0
1.05 0.55 0
0.984375 0.547656 0
0.91875 0.545313 0
0.929688 0.681641 0
0.863281 0.678711 0
0.796875 0.675781 0
0.924219 0.613477 0
0.858203 0.61084 0
0.792188 0.608203 0
0.91875 0.545313 0
0.853125 0.542969 0
0.7875 0.540625 0
0.80625 0.810937 0
0.739063 0.807422 0
0.671875 0.803906 0
0.801563 0.743359 0
0.734766 0.740137 0
0.667969 0.736914 0
0.796875 0.675781 0
0.730469 0.672852 0
0.664062 0.669922 0
0.671875 0.803906 0
0.604688 0.800391 0
0.5375 0.796875 0
0.667969 0.736914 0
0.601172 0.733691 0
0.534375 0.730469 0
0.664062 0.669922 0
0.597656 0.666992 0
0.53125 0.664062 0
0.796875 0.675781 0
0.730469 0.672852 0
0.664062 0.669922 0
0.792188 0.608203 0
0.726172 0.605566 0
0.660156 0.60293 0
0.7875 0.540625 0
0.721875 0.538281 0
0.65625 0.535937 0
0.664062 0.669922 0
0.597656 0.666992 0
0.53125 0.664062 0
0.660156 0.60293 0
0.594141 0.600293 0
0.528125 0.597656 0
0.65625 0.535937 0
0.590625 0.533594 0
0.525 0.53125 0
0.55 1.0625 0
0.48125 1.05781 0
0.4125 1.05313 0
0.546875 0.996094 0
0.478516 0.991699 0
0.410156 0.987305 0
0.54375 0.929688 0
0.475781 0.925586 0
0.407813 0.921484 0
0.4125 1.05313 0
0.34375 1.04844 0
0.275 1.04375 0
0.410156 0.987305 0
0.341797 0.98291 0
0.273438 0.978516 0
0.407813 0.921484 0
0.339844 0.917383 0
0.271875 0.913281 0
0.54375 0.929688 0
0.475781 0.925586 0
0.407813 0.921484 0
0.540625 0.863281 0
0.473047 0.859473 0
0.405469 0.855664 0
0.5375 0.796875 0
0.470313 0.793359 0
0.403125 0.789844 0
0.407813 0.921484 0
0.339844 0.917383 0
0.271875 0.913281 0
0.405469 0.855664 0
0.337891 0.851855 0
0.270313 0.848047 0
0.403125 0.789844 0
0.335938 0.786328 0
0.26875 0.782813 0
0.275 1.04375 0
0.20625 1.03906 0
0.1375 1.03437 0
0.273438 0.978516 0
0.205078 0.974121 0
0.136719 0.969727 0
0.271875 0.913281 0
0.203906 0.90918 0
0.135938 0.905078 0
0.1375 1.03437 0
0.06875 1.02969 0
0 1.025 0
0.136719 0.969727 0
0.0683594 0.965332 0
0 0.960937 0
0.135938 0.905078 0
0.0679688 0.900977 0
0 0.896875 0
0.271875 0.913281 0
0.203906 0.90918 0
0.135938 0.905078 0
0.270313 0.848047 0
0.202734 0.844238 0
0.135156 0.84043 0
0.26875 0.782813 0
0.201563 0.779297 0
0.134375 0.775781 0
0.135938 0.905078 0
0.0679688 0.900977 0
0 0.896875 0
0.135156 0.84043 0
0.0675781 0.836621 0
0 0.832812 0
0.134375 0.775781 0
0.0671875 0.772266 0
0 0.76875 0
0.5375 0.796875 0
0.470313 0.793359 0
0.403125 0.789844 0
0.534375 0.730469 0
0.467578 0.727246 0
0.400781 0.724023 0
0.53125 0.664062 0
0.464844 0.661133 0
0.398438 0.658203 0
0.403125 0.789844 0
0.335938 0.786328 0
0.26875 0.782813 0
0.400781 0.724023 0
0.333984 0.720801 0
0.267188 0.717578 0
0.398438 0.658203 0
0.332031 0.655273 0
0.265625 0.652344 0
0.53125 0.664062 0
0.464844 0.661133 0
0.398438 0.658203 0
0.528125 0.597656 0
0.462109 0.59502 0
0.396094 0.592383 0
0.525 0.53125 0
0.459375 0.528906 0
0.39375 0.526563 0
0.398438 0.658203 0
0.332031 0.655273 0
0.265625 0.652344 0
0.396094 0.592383 0
0.330078 0.589746 0
0.264062 0.587109 0
0.39375 0.526563 0
0.328125 0.524219 0
0.2625 0.521875 0
0.26875 0.782813 0
0.201563 0.779297 0
0.134375 0.775781 0
0.267188 0.717578 0
0.200391 0.714355 0
0.133594 0.711133 0
0.265625 0.652344 0
0.199219 0.649414 0
0.132812 0.646484 0
0.134375 0.775781 0
0.0671875 0.772266 0
0 0.76875 0
0.133594 0.711133 0
0.0667969 0.70791 0
0 0.704687 0
0.132812 0.646484 0
0.0664062 0.643555 0
0 0.640625 0
0.265625 0.652344 0
0.199219 0.649414 0
0.132812 0.646484 0
0.264062 0.587109 0
0.198047 0.584473 0
0.132031 0.581836 0
0.2625 0.521875 0
0.196875 0.519531 0
0.13125 0.517187 0
0.132812 0.646484 0
0.0664062 0.643555 0
0 0.640625 0
0.132031 0.581836 0
0.0660156 0.579199 0
0 0.576562 0
0.13125 0.517187 0
0.065625 0.514844 0
0 0.5125 0
1.05 0.55 0
0.984375 0.547656 0
0.91875 0.545313 0
1.04375 0.48125 0
0.978516 0.479199 0
0.913281 0.477148 0
1.0375 0.4125 0
0.972656 0.410742 0
0.907813 0.408984 0
0.91875 0.545313 0
0.853125 0.542969 0
0.7875 0.540625 0
0.913281 0.477148 0
0.848047 0.475098 0
0.782813 0.473047 0
0.907813 0.408984 0
0.842969 0.407227 0
0.778125 0.405469 0
1.0375 0.4125 0
0.972656 0.410742 0
0.907813 0.408984 0
1.03125 0.34375 0
0.966797 0.342285 0
0.902344 0.34082 0
1.025 0.275 0
0.960937 0.273828 0
0.896875 0.272656 0
0.907813 0.408984 0
0.842969 0.407227 0
0.778125 0.405469 0
0.902344 0.34082 0
0.837891 0.339355 0
0.773438 0.337891 0
0.896875 0.272656 0
0.832812 0.271484 0
0.76875 0.270313 0
0.7875 0.540625 0
0.721875 0.538281 0
0.65625 0.535937 0
0.782813 0.473047 0
0.717578 0.470996 0
0.652344 0.468945 0
0.778125 0.405469 0
0.713281 0.403711 0
0.648438 0.401953 0
0.65625 0.535937 0
0.590625 0.533594 0
0.525 0.53125 0
0.652344 0.468945 0
0.587109 0.466895 0
0.521875 0.464844 0
0.648438 0.401953 0
0.583594 0.400195 0
0.51875 0.398438 0
0.778125 0.405469 0
0.713281 0.403711 0
0.648438 0.401953 0
0.773438 0.337891 0
0.708984 0.336426 0
0.644531 0.334961 0
0.76875 0.270313 0
0.704687 0.269141 0
0.640625 0.267969 0
0.648438 0.401953 0
0.583594 0.400195 0
0.51875 0.398438 0
0.644531 0.334961 0
0.580078 0.333496 0
0.515625 0.332031 0
0.640625 0.267969 0
0.576562 0.266797 0
0.5125 0.265625 0
1.025 0.275 0
0.960937 0.273828 0
0.896875 0.272656 0
1.01875 0.20625 0
0.955078 0.205371 0
0.891406 0.204492 0
1.0125 0.1375 0
0.949219 0.136914 0
0.885937 0.136328 0
0.896875 0.272656 0
0.832812 0.271484 0
0.76875 0.270313 0
0.891406 0.204492 0
0.827734 0.203613 0
0.764062 0.202734 0
0.885937 0.136328 0
0.822656 0.135742 0
0.759375 0.135156 0
1.0125 0.1375 0
0.949219 0.136914 0
0.885937 0.136328 0
1.00625 0.06875 0
0.943359 0.068457 0
0.880469 0.0681641 0
1 0 0
0.9375 0 0
0.875 0 0
0.885937 0.136328 0
0.822656 0.135742 0
0.759375 0.135156 0
0.880469 0.0681641 0
0.817578 0.0678711 0
0.754687 0.0675781 0
0.875 0 0
0.8125 0 0
0.75 0 0
0.76875 0.270313 0
0.704687 0.269141 0
0.640625 0.267969 0
0.764062 0.202734 0
0.700391 0.201855 0
0.636719 0.200977 0
0.759375 0.135156 0
0.696094 0.13457 0
0.632812 0.133984 0
0.640625 0.267969 0
0.576562 0.266797 0
0.5125 0.265625 0
0.636719 0.200977 0
0.573047 0.200098 0
0.509375 0.199219 0
0.632812 0.133984 0
0.569531 0.133398 0
0.50625 0.132812 0
0.759375 0.135156 0
0.696094 0.13457 0
0.632812 0.133984 0
0.754687 0.0675781 0
0.691797 0.0672852 0
0.628906 0.0669922 0
0.75 0 0
0.6875 0 0
0.625 0 0
0.632812 0.133984 0
0.569531 0.133398 0
0.50625 0.132812 0
0.628906 0.0669922 0
0.566016 0.0666992 0
0.503125 0.0664062 0
0.625 0 0
0.5625 0 0
0.5 0 0
0.525 0.53125 0
0.459375 0.528906 0
0.39375 0.526563 0
0.521875 0.464844 0
0.456641 0.462793 0
0.391406 0.460742 0
0.51875 0.398438 0
0.453906 0.39668 0
0.389063 0.394922 0
0.39375 0.526563 0
0.328125 0.524219 0
0.2625 0.521875 0
0.391406 0.460742 0
0.326172 0.458691 0
0.260938 0.456641 0
0.389063 0.394922 0
0.324219 0.393164 0
0.259375 0.391406 0
0.51875 0.398438 0
0.453906 0.39668 0
0.389063 0.394922 0
0.515625 0.332031 0
0.451172 0.330566 0
0.386719 0.329102 0
0.5125 0.265625 0
0.448437 0.264453 0
0.384375 0.263281 0
0.389063 0.394922 0
0.324219 0.393164 0
0.259375 0.391406 0
0.386719 0.329102 0
0.322266 0.327637 0
0.257812 0.326172 0
0.384375 0.263281 0
0.320312 0.262109 0
0.25625 0.260937 0
0.2625 0.521875 0
0.196875 0.519531 0
0.13125 0.517187 0
0.260938 0.456641 0
0.195703 0.45459 0
0.130469 0.452539 0
0.259375 0.391406 0
0.194531 0.389648 0
0.129688 0.387891 0
0.13125 0.517187 0
0.065625 0.514844 0
0 0.5125 0
0.130469 0.452539 0
0.0652344 0.450488 0
0 0.448437 0
0.129688 0.387891 0
0.0648438 0.386133 0
0 0.384375 0
0.259375 0.391406 0
0.194531 0.389648 0
0.129688 0.387891 0
0.257812 0.326172 0
0.193359 0.324707 0
0.128906 0.323242 0
0.25625 0.260937 0
0.192187 0.259766 0
0.128125 0.258594 0
0.129688 0.387891 0
0.0648438 0.386133 0
0 0.384375 0
0.128906 0.323242 0
0.0644531 0.321777 0
0 0.320312 0
0.128125 0.258594 0
0.0640625 0.257422 0
0 0.25625 0
0.5125 0.265625 0
0.448437 0.264453 0
0.384375 0.263281 0
0.509375 0.199219 0
0.445703 0.19834 0
0.382031 0.197461 0
0.50625 0.132812 0
0.442969 0.132227 0
0.379688 0.131641 0
0.384375 0.263281 0
0.320312 0.262109 0
0.25625 0.260937 0
0.382031 0.197461 0
0.318359 0.196582 0
0.254687 0.195703 0
[...]
POINT_DATA 34560
VECTORS v double
1.24031 -0.275817 0
1.22609 -0.251346 0
1.21361 -0.229307 0
1.20842 -0.259259 0
1.1923 -0.238035 0
1.17825 -0.217968 0
1.17181 -0.24233 0
1.15445 -0.223378 0
1.13875 -0.205236 0
1.21361 -0.229307 0
1.20268 -0.208184 0
1.19326 -0.18875 0
1.17825 -0.217968 0
1.16543 -0.198807 0
1.15451 -0.180821 0
1.13875 -0.205236 0
1.12455 -0.18784 0
1.11202 -0.171271 0
1.17181 -0.24233 0
1.15445 -0.223378 0
1.13875 -0.205236 0
1.12916 -0.222762 0
1.1106 -0.206248 0
1.09372 -0.190295 0
1.08028 -0.203776 0
1.0611 -0.189403 0
1.04344 -0.17535 0
1.13875 -0.205236 0
1.12455 -0.18784 0
1.11202 -0.171271 0
1.09372 -0.190295 0
1.07833 -0.174822 0
1.0646 -0.159965 0
1.04344 -0.17535 0
1.02729 -0.161596 0
1.0127 -0.148264 0
1.19326 -0.18875 0
1.18456 -0.170253 0
1.17711 -0.152915 0
1.15451 -0.180821 0
1.14413 -0.163574 0
1.13537 -0.147283 0
1.11202 -0.171271 0
1.10032 -0.155341 0
1.09016 -0.140123 0
1.17711 -0.152915 0
1.16984 -0.136313 0
1.16356 -0.120452 0
1.13537 -0.147283 0
1.12671 -0.131524 0
1.11936 -0.116419 0
1.09016 -0.140123 0
1.08036 -0.125357 0
1.07189 -0.111095 0
1.11202 -0.171271 0
1.10032 -0.155341 0
1.09016 -0.140123 0
1.0646 -0.159965 0
1.05181 -0.145524 0
1.04056 -0.13163 0
1.0127 -0.148264 0
0.999138 -0.135216 0
0.987058 -0.122567 0
1.09016 -0.140123 0
1.08036 -0.125357 0
1.07189 -0.111095 0
1.04056 -0.13163 0
1.02985 -0.118038 0
1.02049 -0.104825 0
0.987058 -0.122567 0
0.975655 -0.110122 0
0.965587 -0.0979514 0
1.08028 -0.203776 0
1.0611 -0.189403 0
1.04344 -0.17535 0
1.02617 -0.184078 0
1.0066 -0.171698 0
0.988446 -0.159477 0
0.96733 -0.164786 0
0.947599 -0.15415 0
0.92914 -0.143562 0
1.04344 -0.17535 0
1.02729 -0.161596 0
1.0127 -0.148264 0
0.988446 -0.159477 0
0.971742 -0.1474 0
0.956514 -0.135606 0
0.92914 -0.143562 0
0.912071 -0.133028 0
0.896379 -0.122672 0
0.96733 -0.164786 0
0.947599 -0.15415 0
0.92914 -0.143562 0
0.903725 -0.144749 0
0.883946 -0.135776 0
0.86536 -0.126789 0
0.835467 -0.12539 0
0.815861 -0.117892 0
0.797337 -0.110338 0
0.92914 -0.143562 0
0.912071 -0.133028 0
0.896379 -0.122672 0
0.86536 -0.126789 0
0.848086 -0.11779 0
0.832116 -0.108892 0
0.797337 -0.110338 0
0.780048 -0.102731 0
0.763975 -0.0951724 0
1.0127 -0.148264 0
0.999138 -0.135216 0
0.987058 -0.122567 0
0.956514 -0.135606 0
0.942357 -0.123982 0
0.929628 -0.11264 0
0.896379 -0.122672 0
0.881787 -0.112405 0
0.868566 -0.10233 0
0.987058 -0.122567 0
0.975655 -0.110122 0
0.965587 -0.0979514 0
0.929628 -0.11264 0
0.917686 -0.101415 0
0.907062 -0.0903775 0
0.868566 -0.10233 0
0.856212 -0.0923102 0
0.845156 -0.0824074 0
0.896379 -0.122672 0
0.881787 -0.112405 0
0.868566 -0.10233 0
0.832116 -0.108892 0
0.817243 -0.100015 0
0.803691 -0.0912578 0
0.763975 -0.0951724 0
0.748979 -0.0875983 0
0.735242 -0.0800946 0
0.868566 -0.10233 0
0.856212 -0.0923102 0
0.845156 -0.0824074 0
0.803691 -0.0912578 0
0.791058 -0.0824992 0
0.779703 -0.0737999 0
0.735242 -0.0800946 0
0.722454 -0.0725582 0
0.710914 -0.0650403 0
1.16356 -0.120452 0
1.15735 -0.105036 0
1.15195 -0.0900108 0
1.11936 -0.116419 0
1.11208 -0.101621 0
1.10587 -0.0871838 0
1.07189 -0.111095 0
1.0637 -0.0970824 0
1.05666 -0.0833493 0
1.15195 -0.0900108 0
1.14647 -0.0751606 0
1.14164 -0.06041 0
1.10587 -0.0871838 0
1.09963 -0.0728379 0
1.09425 -0.058582 0
1.05666 -0.0833493 0
1.04977 -0.0696703 0
1.04385 -0.0560422 0
1.07189 -0.111095 0
1.0637 -0.0970824 0
1.05666 -0.0833493 0
1.02049 -0.104825 0
1.01159 -0.0917627 0
1.00388 -0.0789016 0
0.965587 -0.0979514 0
0.956129 -0.0858683 0
0.94788 -0.073918 0
1.05666 -0.0833493 0
1.04977 -0.0696703 0
1.04385 -0.0560422 0
1.00388 -0.0789016 0
0.996503 -0.0660389 0
0.990153 -0.0531771 0
0.94788 -0.073918 0
0.940106 -0.0619268 0
0.933413 -0.049899 0
1.14164 -0.06041 0
1.1369 -0.0455908 0
1.13273 -0.0306357 0
1.09425 -0.058582 0
1.08905 -0.0442281 0
1.08461 -0.0297478 0
1.04385 -0.0560422 0
1.03825 -0.0422998 0
1.03353 -0.0284308 0
1.13273 -0.0306357 0
1.1286 -0.0154458 0
1.125 0 0
1.08461 -0.0297478 0
1.08029 -0.0150241 0
1.07666 0 0
1.03353 -0.0284308 0
1.02906 -0.0143328 0
1.02539 0 0
1.04385 -0.0560422 0
1.03825 -0.0422998 0
1.03353 -0.0284308 0
0.990153 -0.0531771 0
0.984275 -0.040172 0
0.979356 -0.027028 0
0.933413 -0.049899 0
0.927315 -0.0377142 0
0.92224 -0.025377 0
1.03353 -0.0284308 0
1.02906 -0.0143328 0
1.02539 0 0
0.979356 -0.027028 0
0.974831 -0.01365 0
0.971191 0 0
0.92224 -0.025377 0
0.917673 -0.0128092 0
0.914062 0 0
0.965587 -0.0979514 0
0.956129 -0.0858683 0
0.94788 -0.073918 0
0.907062 -0.0903775 0
0.897164 -0.0793637 0
0.88849 -0.0684211 0
0.845156 -0.0824074 0
0.83492 -0.0724842 0
0.825917 -0.0625829 0
0.94788 -0.073918 0
0.940106 -0.0619268 0
0.933413 -0.049899 0
0.88849 -0.0684211 0
0.88042 -0.0573977 0
0.87347 -0.0463026 0
0.825917 -0.0625829 0
0.817625 -0.0525732 0
0.810488 -0.0424625 0
0.845156 -0.0824074 0
0.83492 -0.0724842 0
0.825917 -0.0625829 0
0.779703 -0.0737999 0
0.769237 -0.0650373 0
0.760009 -0.0562536 0
0.710914 -0.0650403 0
0.70031 -0.0574353 0
0.690942 -0.0497789 0
0.825917 -0.0625829 0
0.817625 -0.0525732 0
0.810488 -0.0424625 0
0.760009 -0.0562536 0
0.751579 -0.047332 0
0.744332 -0.0382829 0
0.690942 -0.0497789 0
0.682442 -0.0419695 0
0.675145 -0.034014 0
0.933413 -0.049899 0
0.927315 -0.0377142 0
0.92224 -0.025377 0
0.87347 -0.0463026 0
0.867225 -0.0350286 0
0.862059 -0.0235872 0
0.810488 -0.0424625 0
0.804148 -0.0321601 0
0.798935 -0.0216781 0
0.92224 -0.025377 0
0.917673 -0.0128092 0
0.914062 0 0
0.862059 -0.0235872 0
0.857518 -0.0119135 0
0.854004 0 0
0.798935 -0.0216781 0
0.794437 -0.0109638 0
0.791016 0 0
0.810488 -0.0424625 0
0.804148 -0.0321601 0
0.798935 -0.0216781 0
0.744332 -0.0382829 0
0.737961 -0.0290258 0
0.732758 -0.0195778 0
0.675145 -0.034014 0
0.668788 -0.0258434 0
0.663636 -0.017472 0
0.798935 -0.0216781 0
0.794437 -0.0109638 0
0.791016 0 0
0.732758 -0.0195778 0
0.72836 -0.00989697 0
0.725098 0 0
0.663636 -0.017472 0
0.659358 -0.00886745 0
0.65625 0 0
0.835467 -0.12539 0
0.815861 -0.117892 0
0.797337 -0.110338 0
0.762863 -0.10576 0
0.743515 -0.0996171 0
0.725179 -0.093407 0
0.685682 -0.086774 0
0.666763 -0.0818681 0
0.648774 -0.0768927 0
0.797337 -0.110338 0
0.780048 -0.102731 0
0.763975 -0.0951724 0
0.725179 -0.093407 0
0.707988 -0.0871295 0
0.691947 -0.080875 0
0.648774 -0.0768927 0
0.631856 -0.0718482 0
0.616012 -0.0668129 0
0.685682 -0.086774 0
0.666763 -0.0818681 0
0.648774 -0.0768927 0
0.603693 -0.0677717 0
0.585335 -0.0640091 0
0.567867 -0.0601923 0
0.515577 -0.0496456 0
0.498113 -0.0469494 0
0.481477 -0.0442105 0
0.648774 -0.0768927 0
0.631856 -0.0718482 0
0.616012 -0.0668129 0
0.567867 -0.0601923 0
0.551386 -0.0563145 0
0.535925 -0.0524437 0
0.481477 -0.0442105 0
0.465753 -0.0414204 0
0.450982 -0.0386372 0
0.763975 -0.0951724 0
0.748979 -0.0875983 0
0.735242 -0.0800946 0
0.691947 -0.080875 0
0.676946 -0.0745854 0
0.663152 -0.0683365 0
0.616012 -0.0668129 0
0.601167 -0.061736 0
0.587467 -0.0566833 0
0.735242 -0.0800946 0
0.722454 -0.0725582 0
0.710914 -0.0650403 0
0.663152 -0.0683365 0
0.650315 -0.0620356 0
0.638696 -0.0557272 0
0.587467 -0.0566833 0
0.574715 -0.0515738 0
0.563138 -0.0464438 0
0.616012 -0.0668129 0
0.601167 -0.061736 0
0.587467 -0.0566833 0
0.535925 -0.0524437 0
0.521407 -0.0485335 0
0.507976 -0.0446413 0
0.450982 -0.0386372 0
0.437089 -0.0358205 0
0.424208 -0.033019 0
0.587467 -0.0566833 0
0.574715 -0.0515738 0
0.563138 -0.0464438 0
0.507976 -0.0446413 0
0.495464 -0.0406965 0
0.484078 -0.0367289 0
0.424208 -0.033019 0
0.412194 -0.0301743 0
0.401238 -0.0273124 0
0.515577 -0.0496456 0
0.498113 -0.0469494 0
0.481477 -0.0442105 0
0.419215 -0.0322464 0
0.40315 -0.0305106 0
0.387862 -0.0287516 0
0.308853 -0.0167685 0
0.295372 -0.0158964 0
0.282534 -0.0150155 0
0.481477 -0.0442105 0
0.465753 -0.0414204 0
0.450982 -0.0386372 0
0.387862 -0.0287516 0
0.373385 -0.0269544 0
0.359788 -0.0251673 0
0.282534 -0.0150155 0
0.270363 -0.0141056 0
0.258928 -0.0132045 0
0.308853 -0.0167685 0
0.295372 -0.0158964 0
0.282534 -0.0150155 0
0.174623 -0.00494456 0
0.165861 -0.00467475 0
0.157551 -0.00441385 0
0 0 0
0 0 0
0 0 0
0.282534 -0.0150155 0
0.270363 -0.0141056 0
0.258928 -0.0132045 0
0.157551 -0.00441385 0
0.149636 -0.00413868 0
0.142231 -0.00387821 0
0 0 0
0 0 0
0 0 0
0.450982 -0.0386372 0
0.437089 -0.0358205 0
0.424208 -0.033019 0
0.359788 -0.0251673 0
0.346977 -0.023354 0
0.335091 -0.0215551 0
0.258928 -0.0132045 0
0.248142 -0.0122804 0
0.238129 -0.0113674 0
0.424208 -0.033019 0
0.412194 -0.0301743 0
0.401238 -0.0273124 0
0.335091 -0.0215551 0
0.323989 -0.0197231 0
0.31385 -0.0178832 0
0.238129 -0.0113674 0
0.228764 -0.010431 0
0.220202 -0.0094953 0
0.258928 -0.0132045 0
0.248142 -0.0122804 0
0.238129 -0.0113674 0
0.142231 -0.00387821 0
0.135212 -0.0035999 0
0.128728 -0.00333494 0
0 0 0
0 0 0
0 0 0
0.238129 -0.0113674 0
0.228764 -0.010431 0
0.220202 -0.0094953 0
0.128728 -0.00333494 0
0.122628 -0.00305257 0
0.117085 -0.00278019 0
0 0 0
0 0 0
0 0 0
0.710914 -0.0650403 0
0.70031 -0.0574353 0
0.690942 -0.0497789 0
0.638696 -0.0557272 0
0.628042 -0.0493156 0
0.618617 -0.0428322 0
0.563138 -0.0464438 0
0.552533 -0.0412087 0
0.543138 -0.035894 0
0.690942 -0.0497789 0
0.682442 -0.0419695 0
0.675145 -0.034014 0
0.618617 -0.0428322 0
0.610111 -0.0361844 0
0.602825 -0.0293779 0
0.543138 -0.035894 0
0.534695 -0.0304167 0
0.527478 -0.024777 0
0.563138 -0.0464438 0
0.552533 -0.0412087 0
0.543138 -0.035894 0
0.484078 -0.0367289 0
0.473645 -0.0326635 0
0.464388 -0.0285223 0
0.401238 -0.0273124 0
0.391184 -0.0243705 0
0.382247 -0.0213658 0
0.543138 -0.035894 0
0.534695 -0.0304167 0
0.527478 -0.024777 0
0.464388 -0.0285223 0
0.456095 -0.0242301 0
0.449018 -0.0197823 0
0.382247 -0.0213658 0
0.374251 -0.0182329 0
0.367436 -0.0149647 0
0.675145 -0.034014 0
0.668788 -0.0258434 0
0.663636 -0.017472 0
0.602825 -0.0293779 0
0.596532 -0.0223502 0
0.591476 -0.0151184 0
0.527478 -0.024777 0
0.521291 -0.0189194 0
0.516367 -0.0128565 0
0.663636 -0.017472 0
0.659358 -0.00886745 0
0.65625 0 0
0.591476 -0.0151184 0
0.587363 -0.0076553 0
0.584473 0 0
0.516367 -0.0128565 0
0.512442 -0.00656784 0
0.509766 0 0
0.527478 -0.024777 0
0.521291 -0.0189194 0
0.516367 -0.0128565 0
0.449018 -0.0197823 0
0.442989 -0.0151268 0
0.438236 -0.0102818 0
0.367436 -0.0149647 0
0.361655 -0.0115134 0
0.357137 -0.00788444 0
0.516367 -0.0128565 0
0.512442 -0.00656784 0
0.509766 0 0
0.438236 -0.0102818 0
0.434534 -0.00522474 0
0.432129 0 0
0.357137 -0.00788444 0
0.353696 -0.00407312 0
0.351562 0 0
0.401238 -0.0273124 0
0.391184 -0.0243705 0
0.382247 -0.0213658 0
0.31385 -0.0178832 0
0.304526 -0.0159851 0
0.296225 -0.0140448 0
0.220202 -0.0094953 0
0.212313 -0.00852521 0
0.205279 -0.0075349 0
0.382247 -0.0213658 0
0.374251 -0.0182329 0
0.367436 -0.0149647 0
0.296225 -0.0140448 0
0.288793 -0.01201 0
0.282469 -0.0098759 0
0.205279 -0.0075349 0
0.198968 -0.00648984 0
0.193601 -0.00539413 0
0.220202 -0.0094953 0
0.212313 -0.00852521 0
0.205279 -0.0075349 0
0.117085 -0.00278019 0
0.111941 -0.00249064 0
0.107392 -0.00220084 0
0 0 0
0 0 0
0 0 0
0.205279 -0.0075349 0
0.198968 -0.00648984 0
0.193601 -0.00539413 0
0.107392 -0.00220084 0
0.103269 -0.00188363 0
0.0997901 -0.00155869 0
0 0 0
0 0 0
0 0 0
0.367436 -0.0149647 0
0.361655 -0.0115134 0
0.357137 -0.00788444 0
0.282469 -0.0098759 0
0.277114 -0.00759562 0
0.272974 -0.00517646 0
0.193601 -0.00539413 0
0.189067 -0.00421442 0
0.1856 -0.0029275 0
0.357137 -0.00788444 0
0.353696 -0.00407312 0
0.351562 0 0
0.272974 -0.00517646 0
0.269878 -0.00260445 0
0.268066 0 0
0.1856 -0.0029275 0
0.183056 -0.00154504 0
0.181641 0 0
0.193601 -0.00539413 0
0.189067 -0.00421442 0
0.1856 -0.0029275 0
0.0997901 -0.00155869 0
0.0968178 -0.00121173 0
0.0946454 -0.00081821 0
0 0 0
0 0 0
0 0 0
0.1856 -0.0029275 0
0.183056 -0.00154504 0
0.181641 0 0
0.0946454 -0.00081821 0
0.0930308 -0.000344138 0
0.0922852 0 0
0 0 0
0 0 0
0 0 0
1.70895 -0.339821 0
1.67347 -0.368516 0
1.63393 -0.391801 0
1.63927 -0.294312 0
1.60775 -0.320747 0
1.57271 -0.342371 0
1.56576 -0.25594 0
1.53918 -0.280022 0
1.50923 -0.300144 0
1.63393 -0.391801 0
1.5938 -0.408299 0
1.55114 -0.418893 0
1.57271 -0.342371 0
1.53711 -0.358757 0
1.49923 -0.369992 0
1.50923 -0.300144 0
1.47868 -0.315997 0
1.44591 -0.327467 0
1.56576 -0.25594 0
1.53918 -0.280022 0
1.50923 -0.300144 0
1.49667 -0.224819 0
1.47346 -0.245374 0
1.44733 -0.26279 0
1.42393 -0.194555 0
1.40276 -0.212793 0
1.37901 -0.228428 0
1.50923 -0.300144 0
1.47868 -0.315997 0
1.44591 -0.327467 0
1.44733 -0.26279 0
1.42034 -0.276731 0
1.39127 -0.287162 0
1.37901 -0.228428 0
1.35451 -0.241221 0
1.32816 -0.251094 0
1.55114 -0.418893 0
1.51145 -0.423435 0
1.471 -0.422355 0
1.49923 -0.369992 0
1.46372 -0.376104 0
1.4274 -0.377732 0
1.44591 -0.327467 0
1.41478 -0.334691 0
1.38272 -0.337878 0
1.471 -0.422355 0
1.43509 -0.417077 0
1.39976 -0.407658 0
1.4274 -0.377732 0
1.3947 -0.375317 0
1.36239 -0.369346 0
1.38272 -0.337878 0
1.35328 -0.337451 0
1.32396 -0.333725 0
1.44591 -0.327467 0
1.41478 -0.334691 0
1.38272 -0.337878 0
1.39127 -0.287162 0
1.36318 -0.294096 0
1.33403 -0.297723 0
1.32816 -0.251094 0
1.30251 -0.258055 0
1.27591 -0.262236 0
1.38272 -0.337878 0
1.35328 -0.337451 0
1.32396 -0.333725 0
1.33403 -0.297723 0
1.30677 -0.298362 0
1.27941 -0.296226 0
1.27591 -0.262236 0
1.25078 -0.263837 0
1.22549 -0.263024 0
1.42393 -0.194555 0
1.40276 -0.212793 0
1.37901 -0.228428 0
1.349 -0.168954 0
1.32989 -0.185081 0
1.30845 -0.199017 0
1.27414 -0.144629 0
1.25662 -0.158913 0
1.23696 -0.171378 0
1.37901 -0.228428 0
1.35451 -0.241221 0
1.32816 -0.251094 0
1.30845 -0.199017 0
1.2863 -0.210539 0
1.26245 -0.219604 0
1.23696 -0.171378 0
1.21658 -0.181818 0
1.19463 -0.190188 0
1.27414 -0.144629 0
1.25662 -0.158913 0
1.23696 -0.171378 0
1.19794 -0.122722 0
1.18161 -0.135092 0
1.16334 -0.145954 0
1.11949 -0.101815 0
1.10401 -0.112569 0
1.08672 -0.122087 0
1.23696 -0.171378 0
1.21658 -0.181818 0
1.19463 -0.190188 0
1.16334 -0.145954 0
1.14434 -0.155133 0
1.12386 -0.162591 0
1.08672 -0.122087 0
1.06876 -0.130215 0
1.04943 -0.136912 0
1.32816 -0.251094 0
1.30251 -0.258055 0
1.27591 -0.262236 0
1.26245 -0.219604 0
1.23906 -0.226196 0
1.21473 -0.230412 0
1.19463 -0.190188 0
1.17292 -0.196454 0
1.15029 -0.200692 0
1.27591 -0.262236 0
1.25078 -0.263837 0
1.22549 -0.263024 0
1.21473 -0.230412 0
1.19149 -0.232407 0
1.168 -0.2323 0
1.15029 -0.200692 0
1.12846 -0.20301 0
1.10633 -0.203504 0
1.19463 -0.190188 0
1.17292 -0.196454 0
1.15029 -0.200692 0
1.12386 -0.162591 0
1.10349 -0.168301 0
1.08222 -0.172308 0
1.04943 -0.136912 0
1.03011 -0.142144 0
1.00995 -0.145945 0
1.15029 -0.200692 0
1.12846 -0.20301 0
1.10633 -0.203504 0
1.08222 -0.172308 0
1.06154 -0.174702 0
1.04051 -0.175539 0
1.00995 -0.145945 0
0.990221 -0.148373 0
0.970137 -0.149474 0
1.39976 -0.407658 0
1.36976 -0.39575 0
1.3415 -0.380776 0
1.36239 -0.369346 0
1.33458 -0.360465 0
1.30816 -0.349285 0
1.32396 -0.333725 0
1.29807 -0.327379 0
1.27319 -0.31873 0
1.3415 -0.380776 0
1.31763 -0.36476 0
1.29593 -0.347327 0
1.30816 -0.349285 0
1.28544 -0.336506 0
1.2646 -0.322266 0
1.27319 -0.31873 0
1.25126 -0.308355 0
1.23078 -0.296489 0
1.32396 -0.333725 0
1.29807 -0.327379 0
1.27319 -0.31873 0
1.27941 -0.296226 0
1.25477 -0.291795 0
1.23085 -0.285296 0
1.22549 -0.263024 0
1.20241 -0.26014 0
1.17992 -0.255416 0
1.27319 -0.31873 0
1.25126 -0.308355 0
1.23078 -0.296489 0
1.23085 -0.285296 0
1.20941 -0.277244 0
1.1892 -0.267816 0
1.17992 -0.255416 0
1.15949 -0.249221 0
1.14009 -0.241712 0
1.29593 -0.347327 0
1.27822 -0.329615 0
1.26315 -0.311156 0
1.2646 -0.322266 0
1.2473 -0.307139 0
1.23218 -0.291417 0
1.23078 -0.296489 0
1.21322 -0.283691 0
1.19751 -0.270149 0
1.26315 -0.311156 0
1.25069 -0.293202 0
1.24031 -0.275817 0
1.23218 -0.291417 0
1.21925 -0.275464 0
1.20842 -0.259259 0
1.19751 -0.270149 0
1.18374 -0.256259 0
1.17181 -0.24233 0
1.23078 -0.296489 0
1.21322 -0.283691 0
1.19751 -0.270149 0
1.1892 -0.267816 0
1.17164 -0.257454 0
1.15571 -0.24632 0
1.14009 -0.241712 0
1.12296 -0.233232 0
1.10723 -0.22395 0
1.19751 -0.270149 0
1.18374 -0.256259 0
1.17181 -0.24233 0
1.15571 -0.24632 0
1.14161 -0.234726 0
1.12916 -0.222762 0
1.10723 -0.22395 0
1.09304 -0.214083 0
1.08028 -0.203776 0
1.22549 -0.263024 0
1.20241 -0.26014 0
1.17992 -0.255416 0
1.168 -0.2323 0
1.14626 -0.23038 0
1.12492 -0.226827 0
1.10633 -0.203504 0
1.08558 -0.202397 0
1.06511 -0.199844 0
1.17992 -0.255416 0
1.15949 -0.249221 0
1.14009 -0.241712 0
1.12492 -0.226827 0
1.10524 -0.221947 0
1.08638 -0.215852 0
1.06511 -0.199844 0
1.04602 -0.196086 0
1.02762 -0.191231 0
1.10633 -0.203504 0
1.08558 -0.202397 0
1.06511 -0.199844 0
1.04051 -0.175539 0
1.0206 -0.175007 0
1.00087 -0.173215 0
0.970137 -0.149474 0
0.950938 -0.149389 0
0.93186 -0.148215 0
1.06511 -0.199844 0
1.04602 -0.196086 0
1.02762 -0.191231 0
1.00087 -0.173215 0
0.982297 -0.170366 0
0.964284 -0.16654 0
0.93186 -0.148215 0
0.913738 -0.146107 0
0.89608 -0.143137 0
1.14009 -0.241712 0
1.12296 -0.233232 0
1.10723 -0.22395 0
1.08638 -0.215852 0
1.06944 -0.208851 0
1.05367 -0.201109 0
1.02762 -0.191231 0
1.01086 -0.185536 0
0.995128 -0.179142 0
1.10723 -0.22395 0
1.09304 -0.214083 0
1.08028 -0.203776 0
1.05367 -0.201109 0
1.03928 -0.192832 0
1.02617 -0.184078 0
0.995128 -0.179142 0
0.980658 -0.172202 0
0.96733 -0.164786 0
1.02762 -0.191231 0
1.01086 -0.185536 0
0.995128 -0.179142 0
0.964284 -0.16654 0
0.947677 -0.161948 0
0.931955 -0.156706 0
0.89608 -0.143137 0
0.87962 -0.139476 0
0.863932 -0.135232 0
0.995128 -0.179142 0
0.980658 -0.172202 0
0.96733 -0.164786 0
0.931955 -0.156706 0
0.917339 -0.150951 0
0.903725 -0.144749 0
0.863932 -0.135232 0
0.849242 -0.130519 0
0.835467 -0.12539 0
1.11949 -0.101815 0
1.10401 -0.112569 0
1.08672 -0.122087 0
1.03935 -0.0829901 0
1.02453 -0.0921522 0
1.00803 -0.100299 0
0.956305 -0.06462 0
0.942004 -0.0723692 0
0.926091 -0.0792995 0
1.08672 -0.122087 0
1.06876 -0.130215 0
1.04943 -0.136912 0
1.00803 -0.100299 0
0.990889 -0.107297 0
0.972456 -0.113108 0
0.926091 -0.0792995 0
0.909558 -0.0852967 0
0.891789 -0.0903257 0
0.956305 -0.06462 0
0.942004 -0.0723692 0
0.926091 -0.0792995 0
0.867797 -0.0476714 0
0.854184 -0.053999 0
0.838998 -0.0596841 0
0.768315 -0.0317235 0
0.755907 -0.0366679 0
0.741858 -0.0411418 0
0.926091 -0.0792995 0
0.909558 -0.0852967 0
0.891789 -0.0903257 0
0.838998 -0.0596841 0
0.823161 -0.0646297 0
0.8061 -0.0688086 0
0.741858 -0.0411418 0
0.727106 -0.0450685 0
0.71109 -0.0484202 0
1.04943 -0.136912 0
1.03011 -0.142144 0
1.00995 -0.145945 0
0.972456 -0.113108 0
0.953955 -0.117702 0
0.934632 -0.121103 0
0.891789 -0.0903257 0
0.873897 -0.0943592 0
0.855204 -0.0974116 0
1.00995 -0.145945 0
0.990221 -0.148373 0
0.970137 -0.149474 0
0.934632 -0.121103 0
0.915621 -0.123359 0
0.896237 -0.124501 0
0.855204 -0.0974116 0
0.836738 -0.0995192 0
0.817895 -0.100703 0
0.891789 -0.0903257 0
0.873897 -0.0943592 0
0.855204 -0.0974116 0
0.8061 -0.0688086 0
0.788845 -0.0721971 0
0.770782 -0.0748019 0
0.71109 -0.0484202 0
0.69479 -0.0511776 0
0.677645 -0.05334 0
0.855204 -0.0974116 0
0.836738 -0.0995192 0
0.817895 -0.100703 0
0.770782 -0.0748019 0
0.752863 -0.0766532 0
0.734543 -0.0777617 0
0.677645 -0.05334 0
0.660547 -0.0549317 0
0.643012 -0.0559542 0
0.768315 -0.0317235 0
0.755907 -0.0366679 0
0.741858 -0.0411418 0
0.648473 -0.0182149 0
0.638337 -0.0216912 0
0.626475 -0.0248609 0
0.493109 -0.00732894 0
0.486478 -0.00931562 0
0.478115 -0.0111485 0
0.741858 -0.0411418 0
0.727106 -0.0450685 0
0.71109 -0.0484202 0
0.626475 -0.0248609 0
0.61379 -0.027665 0
0.599746 -0.0300801 0
0.478115 -0.0111485 0
0.468848 -0.0127953 0
0.458202 -0.0142343 0
0.493109 -0.00732894 0
0.486478 -0.00931562 0
0.478115 -0.0111485 0
0.283676 -0.00180745 0
0.281196 -0.00244 0
0.277291 -0.00302603 0
0 0 0
0 0 0
0 0 0
0.478115 -0.0111485 0
0.468848 -0.0127953 0
0.458202 -0.0142343 0
0.277291 -0.00302603 0
0.272751 -0.00355638 0
0.267017 -0.00401392 0
0 0 0
0 0 0
0 0 0
0.71109 -0.0484202 0
0.69479 -0.0511776 0
0.677645 -0.05334 0
0.599746 -0.0300801 0
0.58528 -0.0320926 0
0.569875 -0.0336947 0
0.458202 -0.0142343 0
0.446995 -0.0154632 0
0.434801 -0.0164647 0
0.677645 -0.05334 0
0.660547 -0.0549317 0
0.643012 -0.0559542 0