# vtk DataFile Version 3.0
#This file was generated by the deal.II library on 2025/1/3 at 13:48:34
ASCII
DATASET UNSTRUCTURED_GRID

POINTS 34560 double
1.1 1.1 0
1.03125 1.09531 0
0.9625 1.09063 0
1.09375 1.03125 0
1.02539 1.02686 0
0.957031 1.02246 0
1.0875 0.9625 0
1.01953 0.958398 0
0.951563 0.954297 0
0.9625 1.09063 0
0.89375 1.08594 0
0.825 1.08125 0
0.957031 1.02246 0
0.888672 1.01807 0
0.820312 1.01367 0
0.951563 0.954297 0
0.883594 0.950195 0
0.815625 0.946094 0
1.0875 0.9625 0
1.01953 0.958398 0
0.951563 0.954297 0
1.08125 0.89375 0
1.01367 0.889941 0
0.946094 0.886133 0
1.075 0.825 0
1.00781 0.821484 0
0.940625 0.817969 0
0.951563 0.954297 0
0.883594 0.950195 0
0.815625 0.946094 0
0.946094 0.886133 0
0.878516 0.882324 0
0.810938 0.878516 0
0.940625 0.817969 0
0.873438 0.814453 0
0.80625 0.810937 0
0.825 1.08125 0
0.75625 1.07656 0
0.6875 1.07187 0
0.820312 1.01367 0
0.751953 1.00928 0
0.683594 1.00488 0
0.815625 0.946094 0
0.747656 0.941992 0
0.679688 0.937891 0
0.6875 1.07187 0
0.61875 1.06719 0
0.55 1.0625 0
0.683594 1.00488 0
0.615234 1.00049 0
0.546875 0.996094 0
0.679688 0.937891 0
0.611719 0.933789 0
0.54375 0.929688 0
0.815625 0.946094 0
0.747656 0.941992 0
0.679688 0.937891 0
0.810938 0.878516 0
0.743359 0.874707 0
0.675781 0.870898 0
0.80625 0.810937 0
0.739063 0.807422 0
0.671875 0.803906 0
0.679688 0.937891 0
0.611719 0.933789 0
0.54375 0.929688 0
0.675781 0.870898 0
0.608203 0.86709 0
0.540625 0.863281 0
0.671875 0.803906 0
0.604688 0.800391 0
0.5375 0.796875 0
1.075 0.825 0
1.00781 0.821484 0
0.940625 0.817969 0
1.06875 0.75625 0
1.00195 0.753027 0
0.935156 0.749805 0
1.0625 0.6875 0
0.996094 0.68457 0
0.929688 0.681641 0
0.940625 0.817969 0
0.873438 0.814453 0
0.80625 0.810937 0
0.935156 0.749805 0
0.868359 0.746582 0
0.801563 0.743359 0
0.929688 0.681641 0
0.863281 0.678711 0
0.796875 0.675781 0
1.0625 0.6875 0
0.996094 0.68457 0
0.929688 0.681641 0
1.05625 0.61875 0
0.990234 0.616113 0
0.924219 0.613477 0
1.05 0.55 0
0.984375 0.547656 0
0.91875 0.545313 0
0.929688 0.681641 0
0.863281 0.678711 0
0.796875 0.675781 0
0.924219 0.613477 0
0.858203 0.61084 0
0.792188 0.608203 0
0.91875 0.545313 0
0.853125 0.542969 0
0.7875 0.540625 0
0.80625 0.810937 0
0.739063 0.807422 0
0.671875 0.803906 0
0.801563 0.743359 0
0.734766 0.740137 0
0.667969 0.736914 0
0.796875 0.675781 0
0.730469 0.672852 0
0.664062 0.669922 0
0.671875 0.803906 0
0.604688 0.800391 0
0.5375 0.796875 0
0.667969 0.736914 0
0.601172 0.733691 0
0.534375 0.730469 0
0.664062 0.669922 0
0.597656 0.666992 0
0.53125 0.664062 0
0.796875 0.675781 0
0.730469 0.672852 0
0.664062 0.669922 0
0.792188 0.608203 0
0.726172 0.605566 0
0.660156 0.60293 0
0.7875 0.540625 0
0.721875 0.538281 0
0.65625 0.535937 0
0.664062 0.669922 0
0.597656 0.666992 0
0.53125 0.664062 0
0.660156 0.60293 0
0.594141 0.600293 0
0.528125 0.597656 0
0.65625 0.535937 0
0.590625 0.533594 0
0.525 0.53125 0
0.55 1.0625 0
0.48125 1.05781 0
0.4125 1.05313 0
0.546875 0.996094 0
0.478516 0.991699 0
0.410156 0.987305 0
0.54375 0.929688 0
0.475781 0.925586 0
0.407813 0.921484 0
0.4125 1.05313 0
0.34375 1.04844 0
0.275 1.04375 0
0.410156 0.987305 0
0.341797 0.98291 0
0.273438 0.978516 0
0.407813 0.921484 0
0.339844 0.917383 0
0.271875 0.913281 0
0.54375 0.929688 0
0.475781 0.925586 0
0.407813 0.921484 0
0.540625 0.863281 0
0.473047 0.859473 0
0.405469 0.855664 0
0.5375 0.796875 0
0.470313 0.793359 0
0.403125 0.789844 0
0.407813 0.921484 0
0.339844 0.917383 0
0.271875 0.913281 0
0.405469 0.855664 0
0.337891 0.851855 0
0.270313 0.848047 0
0.403125 0.789844 0
0.335938 0.786328 0
0.26875 0.782813 0
0.275 1.04375 0
0.20625 1.03906 0
0.1375 1.03437 0
0.273438 0.978516 0
0.205078 0.974121 0
0.136719 0.969727 0
0.271875 0.913281 0
0.203906 0.90918 0
0.135938 0.905078 0
0.1375 1.03437 0
0.06875 1.02969 0
0 1.025 0
0.136719 0.969727 0
0.0683594 0.965332 0
0 0.960937 0
0.135938 0.905078 0
0.0679688 0.900977 0
0 0.896875 0
0.271875 0.913281 0
0.203906 0.90918 0
0.135938 0.905078 0
0.270313 0.848047 0
0.202734 0.844238 0
0.135156 0.84043 0
0.26875 0.782813 0
0.201563 0.779297 0
0.134375 0.775781 0
0.135938 0.905078 0
0.0679688 0.900977 0
0 0.896875 0
0.135156 0.84043 0
0.0675781 0.836621 0
0 0.832812 0
0.134375 0.775781 0
0.0671875 0.772266 0
0 0.76875 0
0.5375 0.796875 0
0.470313 0.793359 0
0.403125 0.789844 0
0.534375 0.730469 0
0.467578 0.727246 0
0.400781 0.724023 0
0.53125 0.664062 0
0.464844 0.661133 0
0.398438 0.658203 0
0.403125 0.789844 0
0.335938 0.786328 0
0.26875 0.782813 0
0.400781 0.724023 0
0.333984 0.720801 0
0.267188 0.717578 0
0.398438 0.658203 0
0.332031 0.655273 0
0.265625 0.652344 0
0.53125 0.664062 0
0.464844 0.661133 0
0.398438 0.658203 0
0.528125 0.597656 0
0.462109 0.59502 0
0.396094 0.592383 0
0.525 0.53125 0
0.459375 0.528906 0
0.39375 0.526563 0
0.398438 0.658203 0
0.332031 0.655273 0
0.265625 0.652344 0
0.396094 0.592383 0
0.330078 0.589746 0
0.264062 0.587109 0
0.39375 0.526563 0
0.328125 0.524219 0
0.2625 0.521875 0
0.26875 0.782813 0
0.201563 0.779297 0
0.134375 0.775781 0
0.267188 0.717578 0
0.200391 0.714355 0
0.133594 0.711133 0
0.265625 0.652344 0
0.199219 0.649414 0
0.132812 0.646484 0
0.134375 0.775781 0
0.0671875 0.772266 0
0 0.76875 0
0.133594 0.711133 0
0.0667969 0.70791 0
0 0.704687 0
0.132812 0.646484 0
0.0664062 0.643555 0
0 0.640625 0
0.265625 0.652344 0
0.199219 0.649414 0
0.132812 0.646484 0
0.264062 0.587109 0
0.198047 0.584473 0
0.132031 0.581836 0
0.2625 0.521875 0
0.196875 0.519531 0
0.13125 0.517187 0
0.132812 0.646484 0
0.0664062 0.643555 0
0 0.640625 0
0.132031 0.581836 0
0.0660156 0.579199 0
0 0.576562 0
0.13125 0.517187 0
0.065625 0.514844 0
0 0.5125 0
1.05 0.55 0
0.984375 0.547656 0
0.91875 0.545313 0
1.04375 0.48125 0
0.978516 0.479199 0
0.913281 0.477148 0
1.0375 0.4125 0
0.972656 0.410742 0
0.907813 0.408984 0
0.91875 0.545313 0
0.853125 0.542969 0
0.7875 0.540625 0
0.913281 0.477148 0
0.848047 0.475098 0
0.782813 0.473047 0
0.907813 0.408984 0
0.842969 0.407227 0
0.778125 0.405469 0
1.0375 0.4125 0
0.972656 0.410742 0
0.907813 0.408984 0
1.03125 0.34375 0
0.966797 0.342285 0
0.902344 0.34082 0
1.025 0.275 0
0.960937 0.273828 0
0.896875 0.272656 0
0.907813 0.408984 0
0.842969 0.407227 0
0.778125 0.405469 0
0.902344 0.34082 0
0.837891 0.339355 0
0.773438 0.337891 0
0.896875 0.272656 0
0.832812 0.271484 0
0.76875 0.270313 0
0.7875 0.540625 0
0.721875 0.538281 0
0.65625 0.535937 0
0.782813 0.473047 0
0.717578 0.470996 0
0.652344 0.468945 0
0.778125 0.405469 0
0.713281 0.403711 0
0.648438 0.401953 0
0.65625 0.535937 0
0.590625 0.533594 0
0.525 0.53125 0
0.652344 0.468945 0
0.587109 0.466895 0
0.521875 0.464844 0
0.648438 0.401953 0
0.583594 0.400195 0
0.51875 0.398438 0
0.778125 0.405469 0
0.713281 0.403711 0
0.648438 0.401953 0
0.773438 0.337891 0
0.708984 0.336426 0
0.644531 0.334961 0
0.76875 0.270313 0
0.704687 0.269141 0
0.640625 0.267969 0
0.648438 0.401953 0
0.583594 0.400195 0
0.51875 0.398438 0
0.644531 0.334961 0
0.580078 0.333496 0
0.515625 0.332031 0
0.640625 0.267969 0
0.576562 0.266797 0
0.5125 0.265625 0
1.025 0.275 0
0.960937 0.273828 0
0.896875 0.272656 0
1.01875 0.20625 0
0.955078 0.205371 0
0.891406 0.204492 0
1.0125 0.1375 0
0.949219 0.136914 0
0.885937 0.136328 0
0.896875 0.272656 0
0.832812 0.271484 0
0.76875 0.270313 0
0.891406 0.204492 0
0.827734 0.203613 0
0.764062 0.202734 0
0.885937 0.136328 0
0.822656 0.135742 0
0.759375 0.135156 0
1.0125 0.1375 0
0.949219 0.136914 0
0.885937 0.136328 0
1.00625 0.06875 0
0.943359 0.068457 0
0.880469 0.0681641 0
1 0 0
0.9375 0 0
0.875 0 0
0.885937 0.136328 0
0.822656 0.135742 0
0.759375 0.135156 0
0.880469 0.0681641 0
0.817578 0.0678711 0
0.754687 0.0675781 0
0.875 0 0
0.8125 0 0
0.75 0 0
0.76875 0.270313 0
0.704687 0.269141 0
0.640625 0.267969 0
0.764062 0.202734 0
0.700391 0.201855 0
0.636719 0.200977 0
0.759375 0.135156 0
0.696094 0.13457 0
0.632812 0.133984 0
0.640625 0.267969 0
0.576562 0.266797 0
0.5125 0.265625 0
0.636719 0.200977 0
0.573047 0.200098 0
0.509375 0.199219 0
0.632812 0.133984 0
0.569531 0.133398 0
0.50625 0.132812 0
0.759375 0.135156 0
0.696094 0.13457 0
0.632812 0.133984 0
0.754687 0.0675781 0
0.691797 0.0672852 0
0.628906 0.0669922 0
0.75 0 0
0.6875 0 0
0.625 0 0
0.632812 0.133984 0
0.569531 0.133398 0
0.50625 0.132812 0
0.628906 0.0669922 0
0.566016 0.0666992 0
0.503125 0.0664062 0
0.625 0 0
0.5625 0 0
0.5 0 0
0.525 0.53125 0
0.459375 0.528906 0
0.39375 0.526563 0
0.521875 0.464844 0
0.456641 0.462793 0
0.391406 0.460742 0
0.51875 0.398438 0
0.453906 0.39668 0
0.389063 0.394922 0
0.39375 0.526563 0
0.328125 0.524219 0
0.2625 0.521875 0
0.391406 0.460742 0
0.326172 0.458691 0
0.260938 0.456641 0
0.389063 0.394922 0
0.324219 0.393164 0
0.259375 0.391406 0
0.51875 0.398438 0
0.453906 0.39668 0
0.389063 0.394922 0
0.515625 0.332031 0
0.451172 0.330566 0
0.386719 0.329102 0
0.5125 0.265625 0
0.448437 0.264453 0
0.384375 0.263281 0
0.389063 0.394922 0
0.324219 0.393164 0
0.259375 0.391406 0
0.386719 0.329102 0
0.322266 0.327637 0
0.257812 0.326172 0
0.384375 0.263281 0
0.320312 0.262109 0
0.25625 0.260937 0
0.2625 0.521875 0
0.196875 0.519531 0
0.13125 0.517187 0
0.260938 0.456641 0
0.195703 0.45459 0
0.130469 0.452539 0
0.259375 0.391406 0
0.194531 0.389648 0
0.129688 0.387891 0
0.13125 0.517187 0
0.065625 0.514844 0
0 0.5125 0
0.130469 0.452539 0
0.0652344 0.450488 0
0 0.448437 0
0.129688 0.387891 0
0.0648438 0.386133 0
0 0.384375 0
0.259375 0.391406 0
0.194531 0.389648 0
0.129688 0.387891 0
0.257812 0.326172 0
0.193359 0.324707 0
0.128906 0.323242 0
0.25625 0.260937 0
0.192187 0.259766 0
0.128125 0.258594 0
0.129688 0.387891 0
0.0648438 0.386133 0
0 0.384375 0
0.128906 0.323242 0
0.0644531 0.321777 0
0 0.320312 0
0.128125 0.258594 0
0.0640625 0.257422 0
0 0.25625 0
0.5125 0.265625 0
0.448437 0.264453 0
0.384375 0.263281 0
0.509375 0.199219 0
0.445703 0.19834 0
0.382031 0.197461 0
0.50625 0.132812 0
0.442969 0.132227 0
0.379688 0.131641 0
0.384375 0.263281 0
0.320312 0.262109 0
0.25625 0.260937 0
0.382031 0.197461 0
0.318359 0.196582 0
0.254687 0.195703 0
[...]
POINT_DATA 34560
VECTORS v double
1.26291 -0.308951 0
1.24574 -0.283494 0
1.23051 -0.260085 0
1.23002 -0.289302 0
1.21115 -0.267272 0
1.19445 -0.246064 0
1.19228 -0.269596 0
1.17234 -0.250016 0
1.15419 -0.230905 0
1.23051 -0.260085 0
1.21706 -0.237322 0
1.20535 -0.215964 0
1.19445 -0.246064 0
1.17925 -0.225473 0
1.16613 -0.205793 0
1.15419 -0.230905 0
1.13775 -0.212264 0
1.12315 -0.194184 0
1.19228 -0.269596 0
1.17234 -0.250016 0
1.15419 -0.230905 0
1.14867 -0.247382 0
1.12769 -0.230364 0
1.1085 -0.21359 0
1.09881 -0.225923 0
1.07737 -0.211168 0
1.05753 -0.196433 0
1.15419 -0.230905 0
1.13775 -0.212264 0
1.12315 -0.194184 0
1.1085 -0.21359 0
1.09099 -0.19703 0
1.07529 -0.180832 0
1.05753 -0.196433 0
1.03937 -0.181743 0
1.02292 -0.167231 0
1.20535 -0.215964 0
1.19457 -0.195339 0
1.18527 -0.175675 0
1.16613 -0.205793 0
1.15376 -0.186632 0
1.14322 -0.168241 0
1.12315 -0.194184 0
1.10957 -0.176531 0
1.09772 -0.159402 0
1.18527 -0.175675 0
1.17634 -0.156619 0
1.16864 -0.138189 0
1.14322 -0.168241 0
1.13297 -0.150237 0
1.12425 -0.132776 0
1.09772 -0.159402 0
1.0864 -0.142582 0
1.07661 -0.126154 0
1.12315 -0.194184 0
1.10957 -0.176531 0
1.09772 -0.159402 0
1.07529 -0.180832 0
1.06071 -0.164848 0
1.04783 -0.149226 0
1.02292 -0.167231 0
1.00764 -0.152804 0
0.994015 -0.138599 0
1.09772 -0.159402 0
1.0864 -0.142582 0
1.07661 -0.126154 0
1.04783 -0.149226 0
1.03567 -0.133768 0
1.02503 -0.118576 0
0.994015 -0.138599 0
0.981218 -0.124462 0
0.96994 -0.110488 0
1.09881 -0.225923 0
1.07737 -0.211168 0
1.05753 -0.196433 0
1.0438 -0.203921 0
1.0221 -0.191261 0
1.0019 -0.178473 0
0.984192 -0.18246 0
0.962446 -0.17163 0
0.942048 -0.160579 0
1.05753 -0.196433 0
1.03937 -0.181743 0
1.02292 -0.167231 0
1.0019 -0.178473 0
0.983294 -0.165584 0
0.966294 -0.152749 0
0.942048 -0.160579 0
0.923169 -0.149353 0
0.905787 -0.138086 0
0.984192 -0.18246 0
0.962446 -0.17163 0
0.942048 -0.160579 0
0.920012 -0.160328 0
0.898304 -0.15123 0
0.877859 -0.141872 0
0.851342 -0.138955 0
0.829872 -0.131399 0
0.809548 -0.123562 0
0.942048 -0.160579 0
0.923169 -0.149353 0
0.905787 -0.138086 0
0.877859 -0.141872 0
0.858837 -0.132289 0
0.841236 -0.122602 0
0.809548 -0.123562 0
0.790556 -0.115474 0
0.772891 -0.107246 0
1.02292 -0.167231 0
1.00764 -0.152804 0
0.994015 -0.138599 0
0.966294 -0.152749 0
0.950506 -0.139895 0
0.936303 -0.127152 0
0.905787 -0.138086 0
0.88963 -0.12673 0
0.874992 -0.115402 0
0.994015 -0.138599 0
0.981218 -0.124462 0
0.96994 -0.110488 0
0.936303 -0.127152 0
0.923024 -0.114396 0
0.91124 -0.101719 0
0.874992 -0.115402 0
0.861351 -0.104006 0
0.849176 -0.0926236 0
0.905787 -0.138086 0
0.88963 -0.12673 0
0.874992 -0.115402 0
0.841236 -0.122602 0
0.824845 -0.112769 0
0.80992 -0.102902 0
0.772891 -0.107246 0
0.756407 -0.0988445 0
0.741325 -0.0903698 0
0.874992 -0.115402 0
0.861351 -0.104006 0
0.849176 -0.0926236 0
0.80992 -0.102902 0
0.796034 -0.0929162 0
0.783592 -0.0828914 0
0.741325 -0.0903698 0
0.727306 -0.0817522 0
0.714698 -0.0730606 0
1.16864 -0.138189 0
1.16117 -0.120162 0
1.15474 -0.102507 0
1.12425 -0.132776 0
1.11576 -0.115565 0
1.10855 -0.0986962 0
1.07661 -0.126154 0
1.06726 -0.109914 0
1.05926 -0.0939307 0
1.15474 -0.102507 0
1.14837 -0.0850971 0
1.14286 -0.0678791 0
1.10855 -0.0986962 0
1.10146 -0.0819717 0
1.09543 -0.0654255 0
1.05926 -0.0939307 0
1.05154 -0.0780474 0
1.04499 -0.0622965 0
1.07661 -0.126154 0
1.06726 -0.109914 0
1.05926 -0.0939307 0
1.02503 -0.118576 0
1.01502 -0.103473 0
1.00638 -0.0885418 0
0.96994 -0.110488 0
0.959408 -0.0965383 0
0.950265 -0.0826892 0
1.05926 -0.0939307 0
1.05154 -0.0780474 0
1.04499 -0.0622965 0
1.00638 -0.0885418 0
0.998207 -0.0736491 0
0.991246 -0.0588309 0
0.950265 -0.0826892 0
0.941738 -0.0688325 0
0.934461 -0.0550061 0
1.14286 -0.0678791 0
1.13757 -0.0507888 0
1.13303 -0.0337815 0
1.09543 -0.0654255 0
1.08969 -0.0489643 0
1.08489 -0.0325899 0
1.04499 -0.0622965 0
1.03888 -0.0466059 0
1.0338 -0.0309953 0
1.13303 -0.0337815 0
1.12868 -0.0168591 0
1.125 0 0
1.08489 -0.0325899 0
1.08036 -0.0162844 0
1.07666 0 0
1.0338 -0.0309953 0
1.02913 -0.0154601 0
1.02539 0 0
1.04499 -0.0622965 0
1.03888 -0.0466059 0
1.0338 -0.0309953 0
0.991246 -0.0588309 0
0.984879 -0.0440352 0
0.979615 -0.0293 0
0.934461 -0.0550061 0
0.927896 -0.04118 0
0.922487 -0.0273931 0
1.0338 -0.0309953 0
1.02913 -0.0154601 0
1.02539 0 0
0.979615 -0.0293 0
0.974898 -0.0146292 0
0.971191 0 0
0.922487 -0.0273931 0
0.917741 -0.0136668 0
0.914062 0 0
0.96994 -0.110488 0
0.959408 -0.0965383 0
0.950265 -0.0826892 0
0.91124 -0.101719 0
0.900309 -0.0890054 0
0.890776 -0.076328 0
0.849176 -0.0926236 0
0.837943 -0.0811608 0
0.828109 -0.0696841 0
0.950265 -0.0826892 0
0.941738 -0.0688325 0
0.934461 -0.0550061 0
0.890776 -0.076328 0
0.881982 -0.0635981 0
0.874472 -0.0508569 0
0.828109 -0.0696841 0
0.819122 -0.0581224 0
0.811447 -0.0465141 0
0.849176 -0.0926236 0
0.837943 -0.0811608 0
0.828109 -0.0696841 0
0.783592 -0.0828914 0
0.772154 -0.0727462 0
0.762119 -0.0625437 0
0.714698 -0.0730606 0
0.70314 -0.0642273 0
0.69298 -0.0553071 0
0.828109 -0.0696841 0
0.819122 -0.0581224 0
0.811447 -0.0465141 0
0.762119 -0.0625437 0
0.753014 -0.0522221 0
0.745248 -0.0418214 0
0.69298 -0.0553071 0
0.683821 -0.0462486 0
0.676021 -0.0370866 0
0.934461 -0.0550061 0
0.927896 -0.04118 0
0.922487 -0.0273931 0
0.874472 -0.0508569 0
0.86778 -0.0380858 0
0.862291 -0.0253319 0
0.811447 -0.0465141 0
0.804679 -0.0348536 0
0.799156 -0.0231898 0
0.922487 -0.0273931 0
0.917741 -0.0136668 0
0.914062 0 0
0.862291 -0.0253319 0
0.857582 -0.0126317 0
0.854004 0 0
0.799156 -0.0231898 0
0.7945 -0.0115719 0
0.791016 0 0
0.811447 -0.0465141 0
0.804679 -0.0348536 0
0.799156 -0.0231898 0
0.745248 -0.0418214 0
0.738465 -0.0313421 0
0.732965 -0.0208396 0
0.676021 -0.0370866 0
0.669269 -0.0278274 0
0.663831 -0.0185243 0
0.799156 -0.0231898 0
0.7945 -0.0115719 0
0.791016 0 0
0.732965 -0.0208396 0
0.728419 -0.0103754 0
0.725098 0 0
0.663831 -0.0185243 0
0.659415 -0.00924867 0
0.65625 0 0
0.851342 -0.138955 0
0.829872 -0.131399 0
0.809548 -0.123562 0
0.778586 -0.117373 0
0.757414 -0.111216 0
0.737309 -0.104793 0
0.70148 -0.0964512 0
0.680761 -0.0915697 0
0.661014 -0.0864471 0
0.809548 -0.123562 0
0.790556 -0.115474 0
0.772891 -0.107246 0
0.737309 -0.104793 0
0.71843 -0.098123 0
0.700807 -0.0913072 0
0.661014 -0.0864471 0
0.642401 -0.0810977 0
0.624961 -0.0756097 0
0.70148 -0.0964512 0
0.680761 -0.0915697 0
0.661014 -0.0864471 0
0.619801 -0.0755409 0
0.599657 -0.071812 0
0.580425 -0.0678885 0
0.532003 -0.055503 0
0.512764 -0.052839 0
0.494361 -0.0500259 0
0.661014 -0.0864471 0
0.642401 -0.0810977 0
0.624961 -0.0756097 0
0.580425 -0.0678885 0
0.562224 -0.0637739 0
0.54513 -0.0595444 0
0.494361 -0.0500259 0
0.476893 -0.047061 0
0.460453 -0.0440106 0
0.772891 -0.107246 0
0.756407 -0.0988445 0
0.741325 -0.0903698 0
0.700807 -0.0913072 0
0.684321 -0.0843123 0
0.669182 -0.0772266 0
0.624961 -0.0756097 0
0.608608 -0.0699508 0
0.593539 -0.0641991 0
0.741325 -0.0903698 0
0.727306 -0.0817522 0
0.714698 -0.0730606 0
0.669182 -0.0772266 0
0.655113 -0.0699874 0
0.642425 -0.0626552 0
0.593539 -0.0641991 0
0.57953 -0.0582983 0
0.566862 -0.0522997 0
0.624961 -0.0756097 0
0.608608 -0.0699508 0
0.593539 -0.0641991 0
0.54513 -0.0595444 0
0.529057 -0.0551674 0
0.514207 -0.0507104 0
0.460453 -0.0440106 0
0.444957 -0.0408424 0
0.430606 -0.0376143 0
0.593539 -0.0641991 0
0.57953 -0.0582983 0
0.566862 -0.0522997 0
0.514207 -0.0507104 0
0.500387 -0.0461224 0
0.487863 -0.0414458 0
0.430606 -0.0376143 0
0.417232 -0.0342809 0
0.405087 -0.0308791 0
0.532003 -0.055503 0
0.512764 -0.052839 0
0.494361 -0.0500259 0
0.435583 -0.0362374 0
0.417759 -0.0345068 0
0.400716 -0.0326822 0
0.3235 -0.0188955 0
0.308395 -0.018018 0
0.293944 -0.0170955 0
0.494361 -0.0500259 0
0.476893 -0.047061 0
0.460453 -0.0440106 0
0.400716 -0.0326822 0
0.384494 -0.0307516 0
0.369224 -0.0287708 0
0.293944 -0.0170955 0
0.280174 -0.0161074 0
0.267216 -0.0150979 0
0.3235 -0.0188955 0
0.308395 -0.018018 0
0.293944 -0.0170955 0
0.183834 -0.00561272 0
0.173937 -0.00533227 0
0.164534 -0.00505181 0
0 0 0
0 0 0
0 0 0
0.293944 -0.0170955 0
0.280174 -0.0161074 0
0.267216 -0.0150979 0
0.164534 -0.00505181 0
0.155537 -0.00474388 0
0.147132 -0.00444377 0
0 0 0
0 0 0
0 0 0
0.460453 -0.0440106 0
0.444957 -0.0408424 0
0.430606 -0.0376143 0
0.369224 -0.0287708 0
0.3548 -0.0267078 0
0.341432 -0.0246106 0
0.267216 -0.0150979 0
0.254967 -0.0140361 0
0.243615 -0.0129615 0
0.430606 -0.0376143 0
0.417232 -0.0342809 0
0.405087 -0.0308791 0
0.341432 -0.0246106 0
0.328955 -0.0224399 0
0.317613 -0.0202288 0
0.243615 -0.0129615 0
0.233013 -0.0118429 0
0.223376 -0.0107095 0
0.267216 -0.0150979 0
0.254967 -0.0140361 0
0.243615 -0.0129615 0
0.147132 -0.00444377 0
0.139154 -0.00411636 0
0.131821 -0.00379718 0
0 0 0
0 0 0
0 0 0
0.243615 -0.0129615 0
0.233013 -0.0118429 0
0.223376 -0.0107095 0
0.131821 -0.00379718 0
0.124939 -0.00345459 0
0.11874 -0.00311902 0
0 0 0
0 0 0
0 0 0
0.714698 -0.0730606 0
0.70314 -0.0642273 0
0.69298 -0.0553071 0
0.642425 -0.0626552 0
0.630817 -0.0551696 0
0.620602 -0.0475782 0
0.566862 -0.0522997 0
0.555287 -0.0461497 0
0.545091 -0.0398882 0
0.69298 -0.0553071 0
0.683821 -0.0462486 0
0.676021 -0.0370866 0
0.620602 -0.0475782 0
0.611444 -0.0398334 0
0.603662 -0.031967 0
0.545091 -0.0398882 0
0.535991 -0.0334719 0
0.528279 -0.0269239 0
0.566862 -0.0522997 0
0.555287 -0.0461497 0
0.545091 -0.0398882 0
0.487863 -0.0414458 0
0.476421 -0.0366317 0
0.466334 -0.0317134 0
0.405087 -0.0308791 0
0.393983 -0.0273652 0
0.384183 -0.0237654 0
0.545091 -0.0398882 0
0.535991 -0.0334719 0
0.528279 -0.0269239 0
0.466334 -0.0317134 0
0.457364 -0.0266492 0
0.449785 -0.021454 0
0.384183 -0.0237654 0
0.375487 -0.0200398 0
0.368161 -0.0161971 0
0.676021 -0.0370866 0
0.669269 -0.0278274 0
0.663831 -0.0185243 0
0.603662 -0.031967 0
0.596985 -0.0239847 0
0.591656 -0.0159429 0
0.528279 -0.0269239 0
0.521718 -0.0202492 0
0.516533 -0.0134976 0
0.663831 -0.0185243 0
0.659415 -0.00924867 0
0.65625 0 0
0.591656 -0.0159429 0
0.587416 -0.00791788 0
0.584473 0 0
0.516533 -0.0134976 0
0.51249 -0.00674974 0
0.509766 0 0
0.528279 -0.0269239 0
0.521718 -0.0202492 0
0.516533 -0.0134976 0
0.449785 -0.021454 0
0.443385 -0.0161264 0
0.438383 -0.0107188 0
0.368161 -0.0161971 0
0.362014 -0.0122288 0
0.357262 -0.00816746 0
0.516533 -0.0134976 0
0.51249 -0.00674974 0
0.509766 0 0
0.438383 -0.0107188 0
0.434575 -0.00530341 0
0.432129 0 0
0.357262 -0.00816746 0
0.353729 -0.00409504 0
0.351562 0 0
0.405087 -0.0308791 0
0.393983 -0.0273652 0
0.384183 -0.0237654 0
0.317613 -0.0202288 0
0.307229 -0.0179398 0
0.298062 -0.0155938 0
0.223376 -0.0107095 0
0.214546 -0.00953218 0
0.206751 -0.00832754 0
0.384183 -0.0237654 0
0.375487 -0.0200398 0
0.368161 -0.0161971 0
0.298062 -0.0155938 0
0.289933 -0.0131562 0
0.283104 -0.0106324 0
0.206751 -0.00832754 0
0.199835 -0.00706971 0
0.194039 -0.00576853 0
0.223376 -0.0107095 0
0.214546 -0.00953218 0
0.206751 -0.00832754 0
0.11874 -0.00311902 0
0.113026 -0.00276463 0
0.108039 -0.00240871 0
0 0 0
0 0 0
0 0 0
0.206751 -0.00832754 0
0.199835 -0.00706971 0
0.194039 -0.00576853 0
0.108039 -0.00240871 0
0.103575 -0.00202703 0
0.0998757 -0.00164079 0
0 0 0
0 0 0
0 0 0
0.368161 -0.0161971 0
0.362014 -0.0122288 0
0.357262 -0.00816746 0
0.283104 -0.0106324 0
0.277404 -0.00800258 0
0.273061 -0.00529124 0
0.194039 -0.00576853 0
0.189228 -0.00440405 0
0.185621 -0.00296069 0
0.357262 -0.00816746 0
0.353729 -0.00409504 0
0.351562 0 0
0.273061 -0.00529124 0
0.269897 -0.00255193 0
0.268066 0 0
0.185621 -0.00296069 0
0.183051 -0.00149267 0
0.181641 0 0
0.194039 -0.00576853 0
0.189228 -0.00440405 0
0.185621 -0.00296069 0
0.0998757 -0.00164079 0
0.0967804 -0.00124083 0
0.0945744 -0.000801879 0
0 0 0
0 0 0
0 0 0
0.185621 -0.00296069 0
0.183051 -0.00149267 0
0.181641 0 0
0.0945744 -0.000801879 0
0.0929977 -0.000305215 0
0.0922852 0 0
0 0 0
0 0 0
0 0 0
1.77128 -0.32506 0
1.73477 -0.360227 0
1.69376 -0.389593 0
1.69629 -0.277892 0
1.664 -0.310368 0
1.62782 -0.33768 0
1.61716 -0.238524 0
1.59025 -0.268165 0
1.55954 -0.293584 0
1.69376 -0.389593 0
1.65169 -0.411646 0
1.60676 -0.427331 0
1.62782 -0.33768 0
1.59059 -0.359325 0
1.55078 -0.375387 0
1.55954 -0.293584 0
1.52777 -0.314379 0
1.49344 -0.330436 0
1.61716 -0.238524 0
1.59025 -0.268165 0
1.55954 -0.293584 0
1.54366 -0.207376 0
1.52037 -0.232962 0
1.49378 -0.255207 0
1.46684 -0.17689 0
1.4458 -0.199758 0
1.4218 -0.219838 0
1.55954 -0.293584 0
1.52777 -0.314379 0
1.49344 -0.330436 0
1.49378 -0.255207 0
1.46588 -0.273682 0
1.43559 -0.288346 0
1.4218 -0.219838 0
1.39664 -0.236823 0
1.36931 -0.250624 0
1.60676 -0.427331 0
1.56457 -0.436395 0
1.52139 -0.439323 0
1.55078 -0.375387 0
1.51312 -0.385853 0
1.47441 -0.391376 0
1.49344 -0.330436 0
1.46052 -0.341836 0
1.42643 -0.348792 0
1.52139 -0.439323 0
1.48272 -0.437544 0
1.44447 -0.431161 0
1.47441 -0.391376 0
1.43924 -0.392396 0
1.40428 -0.389424 0
1.42643 -0.348792 0
1.39484 -0.351718 0
1.36318 -0.350941 0
1.49344 -0.330436 0
1.46052 -0.341836 0
1.42643 -0.348792 0
1.43559 -0.288346 0
1.40601 -0.299157 0
1.37514 -0.306318 0
1.36931 -0.250624 0
1.34242 -0.261207 0
1.31433 -0.268709 0
1.42643 -0.348792 0
1.39484 -0.351718 0
1.36318 -0.350941 0
1.37514 -0.306318 0
1.34599 -0.310125 0
1.31653 -0.310791 0
1.31433 -0.268709 0
1.28751 -0.273305 0
1.26034 -0.275161 0
1.46684 -0.17689 0
1.4458 -0.199758 0
1.4218 -0.219838 0
1.38815 -0.151619 0
1.3694 -0.17196 0
1.34794 -0.189955 0
1.31007 -0.127705 0
1.29314 -0.145805 0
1.27367 -0.161962 0
1.4218 -0.219838 0
1.39664 -0.236823 0
1.36931 -0.250624 0
1.34794 -0.189955 0
1.32536 -0.205321 0
1.30076 -0.218007 0
1.27367 -0.161962 0
1.25309 -0.175912 0
1.2306 -0.187604 0
1.31007 -0.127705 0
1.29314 -0.145805 0
1.27367 -0.161962 0
1.2309 -0.106691 0
1.2154 -0.122461 0
1.19756 -0.136618 0
1.14973 -0.0867804 0
1.13532 -0.10053 0
1.11869 -0.112957 0
1.27367 -0.161962 0
1.25309 -0.175912 0
1.2306 -0.187604 0
1.19756 -0.136618 0
1.1786 -0.148939 0
1.15782 -0.159382 0
1.11869 -0.112957 0
1.101 -0.12387 0
1.08158 -0.13322 0
1.36931 -0.250624 0
1.34242 -0.261207 0
1.31433 -0.268709 0
1.30076 -0.218007 0
1.27635 -0.227957 0
1.25074 -0.235269 0
1.2306 -0.187604 0
1.20808 -0.196965 0
1.18437 -0.204073 0
1.31433 -0.268709 0
1.28751 -0.273305 0
1.26034 -0.275161 0
1.25074 -0.235269 0
1.22602 -0.240074 0
1.20086 -0.242484 0
1.18437 -0.204073 0
1.16126 -0.209006 0
1.13762 -0.211856 0
1.2306 -0.187604 0
1.20808 -0.196965 0
1.18437 -0.204073 0
1.15782 -0.159382 0
1.13685 -0.167885 0
1.11469 -0.174493 0
1.08158 -0.13322 0
1.06187 -0.140948 0
1.04101 -0.147084 0
1.18437 -0.204073 0
1.16126 -0.209006 0
1.13762 -0.211856 0
1.11469 -0.174493 0
1.09289 -0.179272 0
1.07053 -0.182273 0
1.04101 -0.147084 0
1.02035 -0.151666 0
0.999086 -0.154733 0
1.44447 -0.431161 0
1.41163 -0.421832 0
1.38043 -0.408956 0
1.40428 -0.389424 0
1.37389 -0.383116 0
1.34479 -0.374085 0
1.36318 -0.350941 0
1.33499 -0.347147 0
1.30771 -0.340647 0
1.38043 -0.408956 0
1.35372 -0.394672 0
1.32914 -0.378558 0
1.34479 -0.374085 0
1.31947 -0.363079 0
1.29597 -0.350232 0
1.30771 -0.340647 0
1.2834 -0.332048 0
1.26047 -0.321581 0
1.36318 -0.350941 0
1.33499 -0.347147 0
1.30771 -0.340647 0
1.31653 -0.310791 0
1.28979 -0.308797 0
1.26364 -0.304375 0
1.26034 -0.275161 0
1.23534 -0.274621 0
1.2108 -0.271917 0
1.30771 -0.340647 0
1.2834 -0.332048 0
1.26047 -0.321581 0
1.26364 -0.304375 0
1.23996 -0.298061 0
1.21744 -0.290015 0
1.2108 -0.271917 0
1.1883 -0.267429 0
1.16677 -0.261303 0
1.32914 -0.378558 0
1.30868 -0.361824 0
1.29087 -0.343939 0
1.29597 -0.350232 0
1.27616 -0.336155 0
1.25853 -0.321102 0
1.26047 -0.321581 0
1.24059 -0.309831 0
1.22253 -0.296968 0
1.29087 -0.343939 0
1.27583 -0.326308 0
1.26291 -0.308951 0
1.25853 -0.321102 0
1.24322 -0.305496 0
1.23002 -0.289302 0
1.22253 -0.296968 0
1.20648 -0.283449 0
1.19228 -0.269596 0
1.26047 -0.321581 0
1.24059 -0.309831 0
1.22253 -0.296968 0
1.21744 -0.290015 0
1.19766 -0.280715 0
1.17951 -0.270322 0
1.16677 -0.261303 0
1.14759 -0.253908 0
1.12979 -0.245405 0
1.22253 -0.296968 0
1.20648 -0.283449 0
1.19228 -0.269596 0
1.17951 -0.270322 0
1.16324 -0.25919 0
1.14867 -0.247382 0
1.12979 -0.245405 0
1.11358 -0.236033 0
1.09881 -0.225923 0
1.26034 -0.275161 0
1.23534 -0.274621 0
1.2108 -0.271917 0
1.20086 -0.242484 0
1.17738 -0.242784 0
1.15417 -0.241155 0
1.13762 -0.211856 0
1.11528 -0.212839 0
1.09307 -0.21211 0
1.2108 -0.271917 0
1.1883 -0.267429 0
1.16677 -0.261303 0
1.15417 -0.241155 0
1.13259 -0.23791 0
1.11175 -0.233146 0
1.09307 -0.21211 0
1.07218 -0.20991 0
1.05189 -0.206336 0
1.13762 -0.211856 0
1.11528 -0.212839 0
1.09307 -0.21211 0
1.07053 -0.182273 0
1.04915 -0.183675 0
1.0278 -0.183583 0
0.999086 -0.154733 0
0.97857 -0.156417 0
0.957997 -0.156808 0
1.09307 -0.21211 0
1.07218 -0.20991 0
1.05189 -0.206336 0
1.0278 -0.183583 0
1.00754 -0.182198 0
0.987737 -0.179591 0
0.957997 -0.156808 0
0.938289 -0.156062 0
0.918932 -0.154235 0
1.16677 -0.261303 0
1.14759 -0.253908 0
1.12979 -0.245405 0
1.11175 -0.233146 0
1.09287 -0.227195 0
1.07514 -0.220217 0
1.05189 -0.206336 0
1.03328 -0.201665 0
1.01567 -0.196034 0
1.12979 -0.245405 0
1.11358 -0.236033 0
1.09881 -0.225923 0
1.07514 -0.220217 0
1.05882 -0.212444 0
1.0438 -0.203921 0
1.01567 -0.196034 0
0.999348 -0.189613 0
0.984192 -0.18246 0
1.05189 -0.206336 0
1.03328 -0.201665 0
1.01567 -0.196034 0
0.987737 -0.179591 0
0.96935 -0.175984 0
0.951813 -0.171486 0
0.918932 -0.154235 0
0.900758 -0.151509 0
0.883307 -0.147984 0
1.01567 -0.196034 0
0.999348 -0.189613 0
0.984192 -0.18246 0
0.951813 -0.171486 0
0.935404 -0.166247 0
0.920012 -0.160328 0
0.883307 -0.147984 0
0.866862 -0.143784 0
0.851342 -0.138955 0
1.14973 -0.0867804 0
1.13532 -0.10053 0
1.11869 -0.112957 0
1.06702 -0.0693789 0
1.05351 -0.081128 0
1.03793 -0.0917941 0
0.981534 -0.0525738 0
0.968814 -0.0624984 0
0.954071 -0.0715538 0
1.11869 -0.112957 0
1.101 -0.12387 0
1.08158 -0.13322 0
1.03793 -0.0917941 0
1.0213 -0.101208 0
1.00301 -0.10933 0
0.954071 -0.0715538 0
0.938302 -0.0795964 0
0.920921 -0.0865869 0
0.981534 -0.0525738 0
0.968814 -0.0624984 0
0.954071 -0.0715538 0
0.890602 -0.0376331 0
0.878867 -0.0457101 0
0.865132 -0.0531104 0
0.788862 -0.0238977 0
0.778614 -0.0301525 0
0.766282 -0.0359202 0
0.954071 -0.0715538 0
0.938302 -0.0795964 0
0.920921 -0.0865869 0
0.865132 -0.0531104 0
0.850329 -0.0597128 0
0.833913 -0.065486 0
0.766282 -0.0359202 0
0.752819 -0.0411047 0
0.737688 -0.0456722 0
1.08158 -0.13322 0
1.06187 -0.140948 0
1.04101 -0.147084 0
1.00301 -0.10933 0
0.984339 -0.116103 0
0.964529 -0.12155 0
0.920921 -0.0865869 0
0.903087 -0.092477 0
0.884123 -0.0972784 0
1.04101 -0.147084 0
1.02035 -0.151666 0
0.999086 -0.154733 0
0.964529 -0.12155 0
0.944781 -0.1257 0
0.924397 -0.128577 0
0.884123 -0.0972784 0
0.865119 -0.101012 0
0.84546 -0.103692 0
0.920921 -0.0865869 0
0.903087 -0.092477 0
0.884123 -0.0972784 0
0.833913 -0.065486 0
0.816959 -0.0703882 0
0.798851 -0.0744234 0
0.737688 -0.0456722 0
0.721914 -0.0495897 0
0.704932 -0.0528519 0
0.884123 -0.0972784 0
0.865119 -0.101012 0
0.84546 -0.103692 0
0.798851 -0.0744234 0
0.780605 -0.0776083 0
0.761663 -0.0799474 0
0.704932 -0.0528519 0
0.687703 -0.055473 0
0.669724 -0.0574474 0
0.788862 -0.0238977 0
0.778614 -0.0301525 0
0.766282 -0.0359202 0
0.666786 -0.0129545 0
0.659001 -0.017296 0
0.649053 -0.0213274 0
0.50872 -0.00454748 0
0.504293 -0.00697844 0
0.497754 -0.00925891 0
0.766282 -0.0359202 0
0.752819 -0.0411047 0
0.737688 -0.0456722 0
0.649053 -0.0213274 0
0.637855 -0.0249778 0
0.624889 -0.0282157 0
0.497754 -0.00925891 0
0.489929 -0.0113502 0
0.480354 -0.0132244 0
0.50872 -0.00454748 0
0.504293 -0.00697844 0
0.497754 -0.00925891 0
0.294455 -0.00104286 0
0.293352 -0.00180398 0
0.29059 -0.0025198 0
0 0 0
0 0 0
0 0 0
0.497754 -0.00925891 0
0.489929 -0.0113502 0
0.480354 -0.0132244 0
0.29059 -0.0025198 0
0.286956 -0.00318114 0
0.281885 -0.00376678 0
0 0 0
0 0 0
0 0 0
0.737688 -0.0456722 0
0.721914 -0.0495897 0
0.704932 -0.0528519 0
0.624889 -0.0282157 0
0.611134 -0.0310181 0
0.596069 -0.0333717 0
0.480354 -0.0132244 0
0.469881 -0.014875 0
0.458076 -0.016279 0
0.704932 -0.0528519 0
0.687703 -0.055473 0