# vtk DataFile Version 3.0
#This file was generated by the deal.II library on 2025/1/3 at 16:58:15
ASCII
DATASET UNSTRUCTURED_GRID

POINTS 34560 double
1.1 1.1 0
1.03125 1.09531 0
0.9625 1.09063 0
1.09375 1.03125 0
1.02539 1.02686 0
0.957031 1.02246 0
1.0875 0.9625 0
1.01953 0.958398 0
0.951563 0.954297 0
0.9625 1.09063 0
0.89375 1.08594 0
0.825 1.08125 0
0.957031 1.02246 0
0.888672 1.01807 0
0.820312 1.01367 0
0.951563 0.954297 0
0.883594 0.950195 0
0.815625 0.946094 0
1.0875 0.9625 0
1.01953 0.958398 0
0.951563 0.954297 0
1.08125 0.89375 0
1.01367 0.889941 0
0.946094 0.886133 0
1.075 0.825 0
1.00781 0.821484 0
0.940625 0.817969 0
0.951563 0.954297 0
0.883594 0.950195 0
0.815625 0.946094 0
0.946094 0.886133 0
0.878516 0.882324 0
0.810938 0.878516 0
0.940625 0.817969 0
0.873438 0.814453 0
0.80625 0.810937 0
0.825 1.08125 0
0.75625 1.07656 0
0.6875 1.07187 0
0.820312 1.01367 0
0.751953 1.00928 0
0.683594 1.00488 0
0.815625 0.946094 0
0.747656 0.941992 0
0.679688 0.937891 0
0.6875 1.07187 0
0.61875 1.06719 0
0.55 1.0625 0
0.683594 1.00488 0
0.615234 1.00049 0
0.546875 0.996094 0
0.679688 0.937891 0
0.611719 0.933789 0
0.54375 0.929688 0
0.815625 0.946094 0
0.747656 0.941992 0
0.679688 0.937891 0
0.810938 0.878516 0
0.743359 0.874707 0
0.675781 0.870898 0
0.80625 0.810937 0
0.739063 0.807422 0
0.671875 0.803906 0
0.679688 0.937891 0
0.611719 0.933789 0
0.54375 0.929688 0
0.675781 0.870898 0
0.608203 0.86709 0
0.540625 0.863281 0
0.671875 0.803906 0
0.604688 0.800391 0
0.5375 0.796875 0
1.075 0.825 0
1.00781 0.821484 0
0.940625 0.817969 0
1.06875 0.75625 0
1.00195 0.753027 0
0.935156 0.749805 0
1.0625 0.6875 0
0.996094 0.68457 0
0.929688 0.681641 0
0.940625 0.817969 0
0.873438 0.814453 0
0.80625 0.810937 0
0.935156 0.749805 0
0.868359 0.746582 0
0.801563 0.743359 0
0.929688 0.681641 0
0.863281 0.678711 0
0.796875 0.675781 0
1.0625 0.6875 0
0.996094 0.68457 0
0.929688 0.681641 0
1.05625 0.61875 0
0.990234 0.616113 0
0.924219 0.613477 0
1.05 0.55 0
0.984375 0.547656 0
0.91875 0.545313 0
0.929688 0.681641 0
0.863281 0.678711 0
0.796875 0.675781 0
0.924219 0.613477 0
0.858203 0.61084 0
0.792188 0.608203 0
0.91875 0.545313 0
0.853125 0.542969 0
0.7875 0.540625 0
0.80625 0.810937 0
0.739063 0.807422 0
0.671875 0.803906 0
0.801563 0.743359 0
0.734766 0.740137 0
0.667969 0.736914 0
0.796875 0.675781 0
0.730469 0.672852 0
0.664062 0.669922 0
0.671875 0.803906 0
0.604688 0.800391 0
0.5375 0.796875 0
0.667969 0.736914 0
0.601172 0.733691 0
0.534375 0.730469 0
0.664062 0.669922 0
0.597656 0.666992 0
0.53125 0.664062 0
0.796875 0.675781 0
0.730469 0.672852 0
0.664062 0.669922 0
0.792188 0.608203 0
0.726172 0.605566 0
0.660156 0.60293 0
0.7875 0.540625 0
0.721875 0.538281 0
0.65625 0.535937 0
0.664062 0.669922 0
0.597656 0.666992 0
0.53125 0.664062 0
0.660156 0.60293 0
0.594141 0.600293 0
0.528125 0.597656 0
0.65625 0.535937 0
0.590625 0.533594 0
0.525 0.53125 0
0.55 1.0625 0
0.48125 1.05781 0
0.4125 1.05313 0
0.546875 0.996094 0
0.478516 0.991699 0
0.410156 0.987305 0
0.54375 0.929688 0
0.475781 0.925586 0
0.407813 0.921484 0
0.4125 1.05313 0
0.34375 1.04844 0
0.275 1.04375 0
0.410156 0.987305 0
0.341797 0.98291 0
0.273438 0.978516 0
0.407813 0.921484 0
0.339844 0.917383 0
0.271875 0.913281 0
0.54375 0.929688 0
0.475781 0.925586 0
0.407813 0.921484 0
0.540625 0.863281 0
0.473047 0.859473 0
0.405469 0.855664 0
0.5375 0.796875 0
0.470313 0.793359 0
0.403125 0.789844 0
0.407813 0.921484 0
0.339844 0.917383 0
0.271875 0.913281 0
0.405469 0.855664 0
0.337891 0.851855 0
0.270313 0.848047 0
0.403125 0.789844 0
0.335938 0.786328 0
0.26875 0.782813 0
0.275 1.04375 0
0.20625 1.03906 0
0.1375 1.03437 0
0.273438 0.978516 0
0.205078 0.974121 0
0.136719 0.969727 0
0.271875 0.913281 0
0.203906 0.90918 0
0.135938 0.905078 0
0.1375 1.03437 0
0.06875 1.02969 0
0 1.025 0
0.136719 0.969727 0
0.0683594 0.965332 0
0 0.960937 0
0.135938 0.905078 0
0.0679688 0.900977 0
0 0.896875 0
0.271875 0.913281 0
0.203906 0.90918 0
0.135938 0.905078 0
0.270313 0.848047 0
0.202734 0.844238 0
0.135156 0.84043 0
0.26875 0.782813 0
0.201563 0.779297 0
0.134375 0.775781 0
0.135938 0.905078 0
0.0679688 0.900977 0
0 0.896875 0
0.135156 0.84043 0
0.0675781 0.836621 0
0 0.832812 0
0.134375 0.775781 0
0.0671875 0.772266 0
0 0.76875 0
0.5375 0.796875 0
0.470313 0.793359 0
0.403125 0.789844 0
0.534375 0.730469 0
0.467578 0.727246 0
0.400781 0.724023 0
0.53125 0.664062 0
0.464844 0.661133 0
0.398438 0.658203 0
0.403125 0.789844 0
0.335938 0.786328 0
0.26875 0.782813 0
0.400781 0.724023 0
0.333984 0.720801 0
0.267188 0.717578 0
0.398438 0.658203 0
0.332031 0.655273 0
0.265625 0.652344 0
0.53125 0.664062 0
0.464844 0.661133 0
0.398438 0.658203 0
0.528125 0.597656 0
0.462109 0.59502 0
0.396094 0.592383 0
0.525 0.53125 0
0.459375 0.528906 0
0.39375 0.526563 0
0.398438 0.658203 0
0.332031 0.655273 0
0.265625 0.652344 0
0.396094 0.592383 0
0.330078 0.589746 0
0.264062 0.587109 0
0.39375 0.526563 0
0.328125 0.524219 0
0.2625 0.521875 0
0.26875 0.782813 0
0.201563 0.779297 0
0.134375 0.775781 0
0.267188 0.717578 0
0.200391 0.714355 0
0.133594 0.711133 0
0.265625 0.652344 0
0.199219 0.649414 0
0.132812 0.646484 0
0.134375 0.775781 0
0.0671875 0.772266 0
0 0.76875 0
0.133594 0.711133 0
0.0667969 0.70791 0
0 0.704687 0
0.132812 0.646484 0
0.0664062 0.643555 0
0 0.640625 0
0.265625 0.652344 0
0.199219 0.649414 0
0.132812 0.646484 0
0.264062 0.587109 0
0.198047 0.584473 0
0.132031 0.581836 0
0.2625 0.521875 0
0.196875 0.519531 0
0.13125 0.517187 0
0.132812 0.646484 0
0.0664062 0.643555 0
0 0.640625 0
0.132031 0.581836 0
0.0660156 0.579199 0
0 0.576562 0
0.13125 0.517187 0
0.065625 0.514844 0
0 0.5125 0
1.05 0.55 0
0.984375 0.547656 0
0.91875 0.545313 0
1.04375 0.48125 0
0.978516 0.479199 0
0.913281 0.477148 0
1.0375 0.4125 0
0.972656 0.410742 0
0.907813 0.408984 0
0.91875 0.545313 0
0.853125 0.542969 0
0.7875 0.540625 0
0.913281 0.477148 0
0.848047 0.475098 0
0.782813 0.473047 0
0.907813 0.408984 0
0.842969 0.407227 0
0.778125 0.405469 0
1.0375 0.4125 0
0.972656 0.410742 0
0.907813 0.408984 0
1.03125 0.34375 0
0.966797 0.342285 0
0.902344 0.34082 0
1.025 0.275 0
0.960937 0.273828 0
0.896875 0.272656 0
0.907813 0.408984 0
0.842969 0.407227 0
0.778125 0.405469 0
0.902344 0.34082 0
0.837891 0.339355 0
0.773438 0.337891 0
0.896875 0.272656 0
0.832812 0.271484 0
0.76875 0.270313 0
0.7875 0.540625 0
0.721875 0.538281 0
0.65625 0.535937 0
0.782813 0.473047 0
0.717578 0.470996 0
0.652344 0.468945 0
0.778125 0.405469 0
0.713281 0.403711 0
0.648438 0.401953 0
0.65625 0.535937 0
0.590625 0.533594 0
0.525 0.53125 0
0.652344 0.468945 0
0.587109 0.466895 0
0.521875 0.464844 0
0.648438 0.401953 0
0.583594 0.400195 0
0.51875 0.398438 0
0.778125 0.405469 0
0.713281 0.403711 0
0.648438 0.401953 0
0.773438 0.337891 0
0.708984 0.336426 0
0.644531 0.334961 0
0.76875 0.270313 0
0.704687 0.269141 0
0.640625 0.267969 0
0.648438 0.401953 0
0.583594 0.400195 0
0.51875 0.398438 0
0.644531 0.334961 0
0.580078 0.333496 0
0.515625 0.332031 0
0.640625 0.267969 0
0.576562 0.266797 0
0.5125 0.265625 0
1.025 0.275 0
0.960937 0.273828 0
0.896875 0.272656 0
1.01875 0.20625 0
0.955078 0.205371 0
0.891406 0.204492 0
1.0125 0.1375 0
0.949219 0.136914 0
0.885937 0.136328 0
0.896875 0.272656 0
0.832812 0.271484 0
0.76875 0.270313 0
0.891406 0.204492 0
0.827734 0.203613 0
0.764062 0.202734 0
0.885937 0.136328 0
0.822656 0.135742 0
0.759375 0.135156 0
1.0125 0.1375 0
0.949219 0.136914 0
0.885937 0.136328 0
1.00625 0.06875 0
0.943359 0.068457 0
0.880469 0.0681641 0
1 0 0
0.9375 0 0
0.875 0 0
0.885937 0.136328 0
0.822656 0.135742 0
0.759375 0.135156 0
0.880469 0.0681641 0
0.817578 0.0678711 0
0.754687 0.0675781 0
0.875 0 0
0.8125 0 0
0.75 0 0
0.76875 0.270313 0
0.704687 0.269141 0
0.640625 0.267969 0
0.764062 0.202734 0
0.700391 0.201855 0
0.636719 0.200977 0
0.759375 0.135156 0
0.696094 0.13457 0
0.632812 0.133984 0
0.640625 0.267969 0
0.576562 0.266797 0
0.5125 0.265625 0
0.636719 0.200977 0
0.573047 0.200098 0
0.509375 0.199219 0
0.632812 0.133984 0
0.569531 0.133398 0
0.50625 0.132812 0
0.759375 0.135156 0
0.696094 0.13457 0
0.632812 0.133984 0
0.754687 0.0675781 0
0.691797 0.0672852 0
0.628906 0.0669922 0
0.75 0 0
0.6875 0 0
0.625 0 0
0.632812 0.133984 0
0.569531 0.133398 0
0.50625 0.132812 0
0.628906 0.0669922 0
0.566016 0.0666992 0
0.503125 0.0664062 0
0.625 0 0
0.5625 0 0
0.5 0 0
0.525 0.53125 0
0.459375 0.528906 0
0.39375 0.526563 0
0.521875 0.464844 0
0.456641 0.462793 0
0.391406 0.460742 0
0.51875 0.398438 0
0.453906 0.39668 0
0.389063 0.394922 0
0.39375 0.526563 0
0.328125 0.524219 0
0.2625 0.521875 0
0.391406 0.460742 0
0.326172 0.458691 0
0.260938 0.456641 0
0.389063 0.394922 0
0.324219 0.393164 0
0.259375 0.391406 0
0.51875 0.398438 0
0.453906 0.39668 0
0.389063 0.394922 0
0.515625 0.332031 0
0.451172 0.330566 0
0.386719 0.329102 0
0.5125 0.265625 0
0.448437 0.264453 0
0.384375 0.263281 0
0.389063 0.394922 0
0.324219 0.393164 0
0.259375 0.391406 0
0.386719 0.329102 0
0.322266 0.327637 0
0.257812 0.326172 0
0.384375 0.263281 0
0.320312 0.262109 0
0.25625 0.260937 0
0.2625 0.521875 0
0.196875 0.519531 0
0.13125 0.517187 0
0.260938 0.456641 0
0.195703 0.45459 0
0.130469 0.452539 0
0.259375 0.391406 0
0.194531 0.389648 0
0.129688 0.387891 0
0.13125 0.517187 0
0.065625 0.514844 0
0 0.5125 0
0.130469 0.452539 0
0.0652344 0.450488 0
0 0.448437 0
0.129688 0.387891 0
0.0648438 0.386133 0
0 0.384375 0
0.259375 0.391406 0
0.194531 0.389648 0
0.129688 0.387891 0
0.257812 0.326172 0
0.193359 0.324707 0
0.128906 0.323242 0
0.25625 0.260937 0
0.192187 0.259766 0
0.128125 0.258594 0
0.129688 0.387891 0
0.0648438 0.386133 0
0 0.384375 0
0.128906 0.323242 0
0.0644531 0.321777 0
0 0.320312 0
0.128125 0.258594 0
0.0640625 0.257422 0
0 0.25625 0
0.5125 0.265625 0
0.448437 0.264453 0
0.384375 0.263281 0
0.509375 0.199219 0
0.445703 0.19834 0
0.382031 0.197461 0
0.50625 0.132812 0
0.442969 0.132227 0
0.379688 0.131641 0
0.384375 0.263281 0
0.320312 0.262109 0
0.25625 0.260937 0
0.382031 0.197461 0
0.318359 0.196582 0
0.254687 0.195703 0
[...]
POINT_DATA 34560
VECTORS v double
1.26405 -0.310283 0
1.24672 -0.284813 0
1.23134 -0.261365 0
1.23108 -0.290476 0
1.21207 -0.268442 0
1.19523 -0.247209 0
1.19326 -0.270632 0
1.17319 -0.251058 0
1.15491 -0.231931 0
1.23134 -0.261365 0
1.21777 -0.238547 0
1.20594 -0.217116 0
1.19523 -0.247209 0
1.17991 -0.226574 0
1.16668 -0.206833 0
1.15491 -0.231931 0
1.13837 -0.213256 0
1.12366 -0.195125 0
1.19326 -0.270632 0
1.17319 -0.251058 0
1.15491 -0.231931 0
1.14957 -0.248294 0
1.12848 -0.231287 0
1.10917 -0.214504 0
1.09964 -0.226723 0
1.07809 -0.211985 0
1.05815 -0.197247 0
1.15491 -0.231931 0
1.13837 -0.213256 0
1.12366 -0.195125 0
1.10917 -0.214504 0
1.09156 -0.197918 0
1.07577 -0.181677 0
1.05815 -0.197247 0
1.0399 -0.182537 0
1.02336 -0.167989 0
1.20594 -0.217116 0
1.19505 -0.196404 0
1.18566 -0.176639 0
1.16668 -0.206833 0
1.15421 -0.187597 0
1.14359 -0.169117 0
1.12366 -0.195125 0
1.10999 -0.177407 0
1.09806 -0.160199 0
1.18566 -0.176639 0
1.17665 -0.157474 0
1.16888 -0.138927 0
1.14359 -0.169117 0
1.13326 -0.151015 0
1.12447 -0.133448 0
1.09806 -0.160199 0
1.08667 -0.143291 0
1.07682 -0.126767 0
1.12366 -0.195125 0
1.10999 -0.177407 0
1.09806 -0.160199 0
1.07577 -0.181677 0
1.0611 -0.165636 0
1.04815 -0.149945 0
1.02336 -0.167989 0
1.00801 -0.153514 0
0.99431 -0.139248 0
1.09806 -0.160199 0
1.08667 -0.143291 0
1.07682 -0.126767 0
1.04815 -0.149945 0
1.03592 -0.134409 0
1.02523 -0.11913 0
0.99431 -0.139248 0
0.981451 -0.125041 0
0.97012 -0.110989 0
1.09964 -0.226723 0
1.07809 -0.211985 0
1.05815 -0.197247 0
1.04455 -0.204623 0
1.02276 -0.191982 0
1.00247 -0.179195 0
0.984885 -0.183074 0
0.963055 -0.172266 0
0.942576 -0.161219 0
1.05815 -0.197247 0
1.0399 -0.182537 0
1.02336 -0.167989 0
1.00247 -0.179195 0
0.983781 -0.166292 0
0.966704 -0.153427 0
0.942576 -0.161219 0
0.923621 -0.149982 0
0.906167 -0.138691 0
0.984885 -0.183074 0
0.963055 -0.172266 0
0.942576 -0.161219 0
0.920657 -0.160862 0
0.898872 -0.151786 0
0.878352 -0.142435 0
0.851949 -0.139415 0
0.830408 -0.131882 0
0.810015 -0.124053 0
0.942576 -0.161219 0
0.923621 -0.149982 0
0.906167 -0.138691 0
0.878352 -0.142435 0
0.85926 -0.132845 0
0.841593 -0.123138 0
0.810015 -0.124053 0
0.790957 -0.115961 0
0.77323 -0.107717 0
1.02336 -0.167989 0
1.00801 -0.153514 0
0.99431 -0.139248 0
0.966704 -0.153427 0
0.950844 -0.140531 0
0.936577 -0.127734 0
0.906167 -0.138691 0
0.889944 -0.127299 0
0.875246 -0.115924 0
0.99431 -0.139248 0
0.981451 -0.125041 0
0.97012 -0.110989 0
0.936577 -0.127734 0
0.92324 -0.114916 0
0.911407 -0.10217 0
0.875246 -0.115924 0
0.861552 -0.104473 0
0.849331 -0.0930274 0
0.906167 -0.138691 0
0.889944 -0.127299 0
0.875246 -0.115924 0
0.841593 -0.123138 0
0.82514 -0.113273 0
0.810158 -0.103365 0
0.77323 -0.107717 0
0.756687 -0.0992893 0
0.741551 -0.0907788 0
0.875246 -0.115924 0
0.861552 -0.104473 0
0.849331 -0.0930274 0
0.810158 -0.103365 0
0.796222 -0.0933307 0
0.783736 -0.08325 0
0.741551 -0.0907788 0
0.727484 -0.0821182 0
0.714834 -0.0733771 0
1.16888 -0.138927 0
1.16135 -0.12078 0
1.15486 -0.103005 0
1.12447 -0.133448 0
1.11593 -0.116128 0
1.10867 -0.0991488 0
1.07682 -0.126767 0
1.06741 -0.110427 0
1.05937 -0.0943418 0
1.15486 -0.103005 0
1.14845 -0.0854805 0
1.14291 -0.0681546 0
1.10867 -0.0991488 0
1.10154 -0.0823183 0
1.09548 -0.0656726 0
1.05937 -0.0943418 0
1.05162 -0.0783607 0
1.04504 -0.0625181 0
1.07682 -0.126767 0
1.06741 -0.110427 0
1.05937 -0.0943418 0
1.02523 -0.11913 0
1.01516 -0.103936 0
1.00648 -0.0889119 0
0.97012 -0.110989 0
0.959542 -0.0969568 0
0.950362 -0.0830227 0
1.05937 -0.0943418 0
1.05162 -0.0783607 0
1.04504 -0.0625181 0
1.00648 -0.0889119 0
0.998279 -0.0739294 0
0.991292 -0.0590268 0
0.950362 -0.0830227 0
0.941804 -0.0690837 0
0.934503 -0.0551797 0
1.14291 -0.0681546 0
1.1376 -0.0509702 0
1.13304 -0.0338833 0
1.09548 -0.0656726 0
1.08972 -0.0491249 0
1.0849 -0.032678 0
1.04504 -0.0625181 0
1.0389 -0.046748 0
1.03382 -0.0310716 0
1.13304 -0.0338833 0
1.12868 -0.0169007 0
1.125 0 0
1.0849 -0.032678 0
1.08037 -0.0163192 0
1.07666 0 0
1.03382 -0.0310716 0
1.02913 -0.0154893 0
1.02539 0 0
1.04504 -0.0625181 0
1.0389 -0.046748 0
1.03382 -0.0310716 0
0.991292 -0.0590268 0
0.984904 -0.0441585 0
0.979625 -0.0293638 0
0.934503 -0.0551797 0
0.927919 -0.0412873 0
0.922496 -0.0274468 0
1.03382 -0.0310716 0
1.02913 -0.0154893 0
1.02539 0 0
0.979625 -0.0293638 0
0.974901 -0.0146521 0
0.971191 0 0
0.922496 -0.0274468 0
0.917744 -0.0136849 0
0.914062 0 0
0.97012 -0.110989 0
0.959542 -0.0969568 0
0.950362 -0.0830227 0
0.911407 -0.10217 0
0.900433 -0.0893809 0
0.890865 -0.0766261 0
0.849331 -0.0930274 0
0.838057 -0.0814973 0
0.828191 -0.0699505 0
0.950362 -0.0830227 0
0.941804 -0.0690837 0
0.934503 -0.0551797 0
0.890865 -0.0766261 0
0.882042 -0.0638208 0
0.874511 -0.0510086 0
0.828191 -0.0699505 0
0.819177 -0.0583201 0
0.811482 -0.0466468 0
0.849331 -0.0930274 0
0.838057 -0.0814973 0
0.828191 -0.0699505 0
0.783736 -0.08325 0
0.77226 -0.0730445 0
0.762194 -0.0627789 0
0.714834 -0.0733771 0
0.70324 -0.0644904 0
0.69305 -0.0555138 0
0.828191 -0.0699505 0
0.819177 -0.0583201 0
0.811482 -0.0466468 0
0.762194 -0.0627789 0
0.753065 -0.0523951 0
0.74528 -0.0419354 0
0.69305 -0.0555138 0
0.683868 -0.0463995 0
0.67605 -0.0371844 0
0.934503 -0.0551797 0
0.927919 -0.0412873 0
0.922496 -0.0274468 0
0.874511 -0.0510086 0
0.867801 -0.0381769 0
0.8623 -0.0253747 0
0.811482 -0.0466468 0
0.804699 -0.0349312 0
0.799164 -0.023224 0
0.922496 -0.0274468 0
0.917744 -0.0136849 0
0.914062 0 0
0.8623 -0.0253747 0
0.857584 -0.0126441 0
0.854004 0 0
0.799164 -0.023224 0
0.794502 -0.0115804 0
0.791016 0 0
0.811482 -0.0466468 0
0.804699 -0.0349312 0
0.799164 -0.023224 0
0.74528 -0.0419354 0
0.738483 -0.031406 0
0.732971 -0.0208647 0
0.67605 -0.0371844 0
0.669285 -0.0278801 0
0.663837 -0.0185426 0
0.799164 -0.023224 0
0.794502 -0.0115804 0
0.791016 0 0
0.732971 -0.0208647 0
0.728421 -0.0103791 0
0.725098 0 0
0.663837 -0.0185426 0
0.659417 -0.00924916 0
0.65625 0 0
0.851949 -0.139415 0
0.830408 -0.131882 0
0.810015 -0.124053 0
0.779172 -0.117765 0
0.757934 -0.111631 0
0.737762 -0.105216 0
0.702061 -0.0967773 0
0.681278 -0.0919168 0
0.661467 -0.0868038 0
0.810015 -0.124053 0
0.790957 -0.115961 0
0.77323 -0.107717 0
0.737762 -0.105216 0
0.718821 -0.0985444 0
0.701137 -0.0917155 0
0.661467 -0.0868038 0
0.642791 -0.0814539 0
0.625291 -0.0759558 0
0.702061 -0.0967773 0
0.681278 -0.0919168 0
0.661467 -0.0868038 0
0.620395 -0.0758039 0
0.600189 -0.072093 0
0.580893 -0.0681781 0
0.532617 -0.0557022 0
0.513317 -0.0530525 0
0.494849 -0.0502465 0
0.661467 -0.0868038 0
0.642791 -0.0814539 0
0.625291 -0.0759558 0
0.580893 -0.0681781 0
0.562628 -0.0640637 0
0.545472 -0.0598263 0
0.494849 -0.0502465 0
0.477316 -0.0472821 0
0.460811 -0.044226 0
0.77323 -0.107717 0
0.756687 -0.0992893 0
0.741551 -0.0907788 0
0.701137 -0.0917155 0
0.684593 -0.0846982 0
0.669402 -0.0775816 0
0.625291 -0.0759558 0
0.60888 -0.0702787 0
0.593758 -0.064501 0
0.741551 -0.0907788 0
0.727484 -0.0821182 0
0.714834 -0.0733771 0
0.669402 -0.0775816 0
0.655285 -0.0703049 0
0.642556 -0.0629295 0
0.593758 -0.064501 0
0.579701 -0.0585684 0
0.566992 -0.0525329 0
0.625291 -0.0759558 0
0.60888 -0.0702787 0
0.593758 -0.064501 0
0.545472 -0.0598263 0
0.529339 -0.0554346 0
0.514434 -0.0509564 0
0.460811 -0.044226 0
0.445253 -0.0410466 0
0.430843 -0.0378023 0
0.593758 -0.064501 0
0.579701 -0.0585684 0
0.566992 -0.0525329 0
0.514434 -0.0509564 0
0.500563 -0.0463422 0
0.487995 -0.0416351 0
0.430843 -0.0378023 0
0.417416 -0.0344486 0
0.405223 -0.0310232 0
0.532617 -0.0557022 0
0.513317 -0.0530525 0
0.494849 -0.0502465 0
0.436208 -0.0363753 0
0.418323 -0.0346537 0
0.401215 -0.0328332 0
0.324066 -0.0189692 0
0.308903 -0.018096 0
0.294391 -0.0171754 0
0.494849 -0.0502465 0
0.477316 -0.0472821 0
0.460811 -0.044226 0
0.401215 -0.0328332 0
0.384925 -0.0309021 0
0.369589 -0.0289167 0
0.294391 -0.0171754 0
0.280558 -0.0161867 0
0.267539 -0.0151745 0
0.324066 -0.0189692 0
0.308903 -0.018096 0
0.294391 -0.0171754 0
0.184178 -0.00563654 0
0.17424 -0.00535699 0
0.164795 -0.00507671 0
0 0 0
0 0 0
0 0 0
0.294391 -0.0171754 0
0.280558 -0.0161867 0
0.267539 -0.0151745 0
0.164795 -0.00507671 0
0.155756 -0.00476812 0
0.14731 -0.00446677 0
0 0 0
0 0 0
0 0 0
0.460811 -0.044226 0
0.445253 -0.0410466 0
0.430843 -0.0378023 0
0.369589 -0.0289167 0
0.355101 -0.0268454 0
0.341672 -0.0247365 0
0.267539 -0.0151745 0
0.255229 -0.0141079 0
0.243822 -0.0130269 0
0.430843 -0.0378023 0
0.417416 -0.0344486 0
0.405223 -0.0310232 0
0.341672 -0.0247365 0
0.329138 -0.0225515 0
0.317748 -0.0203238 0
0.243822 -0.0130269 0
0.233168 -0.0119005 0
0.223487 -0.0107581 0
0.267539 -0.0151745 0
0.255229 -0.0141079 0
0.243822 -0.0130269 0
0.14731 -0.00446677 0
0.139294 -0.0041375 0
0.131925 -0.00381604 0
0 0 0
0 0 0
0 0 0
0.243822 -0.0130269 0
0.233168 -0.0119005 0
0.223487 -0.0107581 0
0.131925 -0.00381604 0
0.125012 -0.00347078 0
0.118787 -0.00313227 0
0 0 0
0 0 0
0 0 0
0.714834 -0.0733771 0
0.70324 -0.0644904 0
0.69305 -0.0555138 0
0.642556 -0.0629295 0
0.630912 -0.0553971 0
0.620668 -0.047756 0
0.566992 -0.0525329 0
0.55538 -0.0463427 0
0.545154 -0.0400386 0
0.69305 -0.0555138 0
0.683868 -0.0463995 0
0.67605 -0.0371844 0
0.620668 -0.047756 0
0.611486 -0.039962 0
0.603688 -0.0320484 0
0.545154 -0.0400386 0
0.53603 -0.0335798 0
0.528303 -0.026991 0
0.566992 -0.0525329 0
0.55538 -0.0463427 0
0.545154 -0.0400386 0
0.487995 -0.0416351 0
0.476514 -0.0367878 0
0.466396 -0.0318342 0
0.405223 -0.0310232 0
0.394078 -0.0274836 0
0.384245 -0.0238565 0
0.545154 -0.0400386 0
0.53603 -0.0335798 0
0.528303 -0.026991 0
0.466396 -0.0318342 0
0.457401 -0.0267347 0
0.449806 -0.0215055 0
0.384245 -0.0238565 0
0.375523 -0.0201036 0
0.36818 -0.0162345 0
0.67605 -0.0371844 0
0.669285 -0.0278801 0
0.663837 -0.0185426 0
0.603688 -0.0320484 0
0.596999 -0.024026 0
0.591661 -0.0159538 0
0.528303 -0.026991 0
0.52173 -0.0202814 0
0.516537 -0.0135034 0
0.663837 -0.0185426 0
0.659417 -0.00924916 0
0.65625 0 0
0.591661 -0.0159538 0
0.587417 -0.00791443 0
0.584473 0 0
0.516537 -0.0135034 0
0.512492 -0.0067442 0
0.509766 0 0
0.528303 -0.026991 0
0.52173 -0.0202814 0
0.516537 -0.0135034 0
0.449806 -0.0215055 0
0.443395 -0.0161488 0
0.438385 -0.0107191 0
0.36818 -0.0162345 0
0.362022 -0.0122434 0
0.357263 -0.0081647 0
0.516537 -0.0135034 0
0.512492 -0.0067442 0
0.509766 0 0
0.438385 -0.0107191 0
0.434576 -0.00529511 0
0.432129 0 0
0.357263 -0.0081647 0
0.35373 -0.0040862 0
0.351562 0 0
0.405223 -0.0310232 0
0.394078 -0.0274836 0
0.384245 -0.0238565 0
0.317748 -0.0203238 0
0.307322 -0.0180169 0
0.29812 -0.0156521 0
0.223487 -0.0107581 0
0.214619 -0.00957126 0
0.206793 -0.00835655 0
0.384245 -0.0238565 0
0.375523 -0.0201036 0
0.36818 -0.0162345 0
0.29812 -0.0156521 0
0.289964 -0.0131958 0
0.283118 -0.0106538 0
0.206793 -0.00835655 0
0.199854 -0.00708874 0
0.194044 -0.00577799 0
0.223487 -0.0107581 0
0.214619 -0.00957126 0
0.206793 -0.00835655 0
0.118787 -0.00313227 0
0.113051 -0.00277485 0
0.108047 -0.00241577 0
0 0 0
0 0 0
0 0 0
0.206793 -0.00835655 0
0.199854 -0.00708874 0
0.194044 -0.00577799 0
0.108047 -0.00241577 0
0.103572 -0.00203107 0
0.0998665 -0.00164196 0
0 0 0
0 0 0
0 0 0
0.36818 -0.0162345 0
0.362022 -0.0122434 0
0.357263 -0.0081647 0
0.283118 -0.0106538 0
0.277407 -0.00800847 0
0.273059 -0.00528525 0
0.194044 -0.00577799 0
0.189226 -0.00440522 0
0.185616 -0.00295544 0
0.357263 -0.0081647 0
0.35373 -0.0040862 0
0.351562 0 0
0.273059 -0.00528525 0
0.269896 -0.00254229 0
0.268066 0 0
0.185616 -0.00295544 0
0.183049 -0.00148569 0
0.181641 0 0
0.194044 -0.00577799 0
0.189226 -0.00440522 0
0.185616 -0.00295544 0
0.0998665 -0.00164196 0
0.09677 -0.00123965 0
0.0945663 -0.000798864 0
0 0 0
0 0 0
0 0 0
0.185616 -0.00295544 0
0.183049 -0.00148569 0
0.181641 0 0
0.0945663 -0.000798864 0
0.0929949 -0.000302017 0
0.0922852 0 0
0 0 0
0 0 0
0 0 0
1.77423 -0.322415 0
1.73777 -0.358101 0
1.69676 -0.387961 0
1.69875 -0.275258 0
1.66654 -0.308207 0
1.63039 -0.335968 0
1.61914 -0.235963 0
1.59234 -0.266023 0
1.5617 -0.291848 0
1.69676 -0.387961 0
1.65463 -0.410461 0
1.60961 -0.426556 0
1.63039 -0.335968 0
1.59314 -0.358028 0
1.55327 -0.374473 0
1.5617 -0.291848 0
1.52994 -0.313024 0
1.49559 -0.329437 0
1.61914 -0.235963 0
1.59234 -0.266023 0
1.5617 -0.291848 0
1.54527 -0.204962 0
1.5221 -0.230915 0
1.49559 -0.253518 0
1.46812 -0.174597 0
1.44721 -0.197792 0
1.42331 -0.218194 0
1.5617 -0.291848 0
1.52994 -0.313024 0
1.49559 -0.329437 0
1.49559 -0.253518 0
1.46774 -0.272332 0
1.43745 -0.287318 0
1.42331 -0.218194 0
1.3982 -0.235486 0
1.37091 -0.249579 0
1.60961 -0.426556 0
1.56731 -0.43598 0
1.524 -0.439228 0
1.55327 -0.374473 0
1.51553 -0.385283 0
1.47672 -0.391114 0
1.49559 -0.329437 0
1.46263 -0.341161 0
1.42847 -0.348411 0
1.524 -0.439228 0
1.48519 -0.437728 0
1.44678 -0.431587 0
1.47672 -0.391114 0
1.44144 -0.392406 0
1.40636 -0.389672 0
1.42847 -0.348411 0
1.3968 -0.351598 0
1.36504 -0.351054 0
1.49559 -0.329437 0
1.46263 -0.341161 0
1.42847 -0.348411 0
1.43745 -0.287318 0
1.40786 -0.298424 0
1.37694 -0.305857 0
1.37091 -0.249579 0
1.34401 -0.260434 0
1.3159 -0.268188 0
1.42847 -0.348411 0
1.3968 -0.351598 0
1.36504 -0.351054 0
1.37694 -0.305857 0
1.34773 -0.309909 0
1.3182 -0.310793 0
1.3159 -0.268188 0
1.28904 -0.273013 0
1.26182 -0.275075 0
1.46812 -0.174597 0
1.44721 -0.197792 0
1.42331 -0.218194 0
1.38915 -0.149484 0
1.37053 -0.170113 0
1.34918 -0.188393 0
1.31082 -0.12572 0
1.29404 -0.144074 0
1.27469 -0.160484 0
1.42331 -0.218194 0
1.3982 -0.235486 0
1.37091 -0.249579 0
1.34918 -0.188393 0
1.32668 -0.204035 0
1.30212 -0.216984 0
1.27469 -0.160484 0
1.2542 -0.174681 0
1.23177 -0.186609 0
1.31082 -0.12572 0
1.29404 -0.144074 0
1.27469 -0.160484 0
1.23144 -0.104888 0
1.2161 -0.120879 0
1.19839 -0.135256 0
1.15008 -0.0851558 0
1.13584 -0.0990948 0
1.11935 -0.111713 0
1.27469 -0.160484 0
1.2542 -0.174681 0
1.23177 -0.186609 0
1.19839 -0.135256 0
1.17953 -0.147793 0
1.15882 -0.158445 0
1.11935 -0.111713 0
1.10177 -0.122813 0
1.08244 -0.132347 0
1.37091 -0.249579 0
1.34401 -0.260434 0
1.3159 -0.268188 0
1.30212 -0.216984 0
1.27773 -0.22718 0
1.25211 -0.234723 0
1.23177 -0.186609 0
1.20928 -0.196195 0
1.18558 -0.203513 0
1.3159 -0.268188 0
1.28904 -0.273013 0
1.26182 -0.275075 0
1.25211 -0.234723 0
1.22738 -0.239739 0
1.20217 -0.242342 0
1.18558 -0.203513 0
1.16246 -0.208641 0
1.1388 -0.211669 0
1.23177 -0.186609 0
1.20928 -0.196195 0
1.18558 -0.203513 0
1.15882 -0.158445 0
1.1379 -0.167148 0
1.11576 -0.173944 0
1.08244 -0.132347 0
1.06279 -0.140251 0
1.04196 -0.146554 0
1.18558 -0.203513 0
1.16246 -0.208641 0
1.1388 -0.211669 0
1.11576 -0.173944 0
1.09397 -0.178899 0
1.07159 -0.182061 0
1.04196 -0.146554 0
1.02132 -0.151292 0
1.00006 -0.154504 0
1.44678 -0.431587 0
1.41379 -0.422466 0
1.38243 -0.409764 0
1.40636 -0.389672 0
1.37585 -0.383572 0
1.34661 -0.374717 0
1.36504 -0.351054 0
1.33675 -0.347463 0
1.30936 -0.341138 0
1.38243 -0.409764 0
1.35558 -0.395628 0
1.33083 -0.379633 0
1.34661 -0.374717 0
1.32116 -0.363861 0
1.29753 -0.351138 0
1.30936 -0.341138 0
1.28494 -0.332688 0
1.26189 -0.322345 0
1.36504 -0.351054 0
1.33675 -0.347463 0
1.30936 -0.341138 0
1.3182 -0.310793 0
1.29138 -0.308993 0
1.26514 -0.304738 0
1.26182 -0.275075 0
1.23676 -0.274718 0
1.21214 -0.272176 0
1.30936 -0.341138 0
1.28494 -0.332688 0
1.26189 -0.322345 0
1.26514 -0.304738 0
1.24136 -0.29857 0
1.21874 -0.290644 0
1.21214 -0.272176 0
1.18956 -0.267828 0
1.16794 -0.26182 0
1.33083 -0.379633 0
1.31023 -0.362996 0
1.29228 -0.345182 0
1.29753 -0.351138 0
1.27759 -0.337162 0
1.25984 -0.322185 0
1.26189 -0.322345 0
1.2419 -0.310695 0
1.22373 -0.29791 0
1.29228 -0.345182 0
1.2771 -0.327605 0
1.26405 -0.310283 0
1.25984 -0.322185 0
1.2444 -0.306636 0
1.23108 -0.290476 0
1.22373 -0.29791 0
1.20757 -0.284448 0
1.19326 -0.270632 0
1.26189 -0.322345 0
1.2419 -0.310695 0
1.22373 -0.29791 0
1.21874 -0.290644 0
1.19886 -0.281445 0
1.18061 -0.27113 0
1.16794 -0.26182 0
1.14868 -0.254525 0
1.13079 -0.246101 0
1.22373 -0.29791 0
1.20757 -0.284448 0
1.19326 -0.270632 0
1.18061 -0.27113 0
1.16424 -0.26006 0
1.14957 -0.248294 0
1.13079 -0.246101 0
1.11449 -0.236791 0
1.09964 -0.226723 0
1.26182 -0.275075 0
1.23676 -0.274718 0
1.21214 -0.272176 0
1.20217 -0.242342 0
1.17865 -0.242814 0
1.15538 -0.241337 0
1.1388 -0.211669 0
1.11642 -0.212813 0
1.09416 -0.212226 0
1.21214 -0.272176 0
1.18956 -0.267828 0
1.16794 -0.26182 0
1.15538 -0.241337 0
1.13373 -0.238225 0
1.11281 -0.233574 0
1.09416 -0.212226 0
1.07322 -0.210151 0
1.05287 -0.206685 0
1.1388 -0.211669 0
1.11642 -0.212813 0
1.09416 -0.212226 0
1.07159 -0.182061 0
1.05019 -0.183609 0
1.02881 -0.183648 0
1.00006 -0.154504 0
0.979528 -0.156321 0
0.958925 -0.156832 0
1.09416 -0.212226 0
1.07322 -0.210151 0
1.05287 -0.206685 0
1.02881 -0.183648 0
1.00849 -0.18238 0
0.988635 -0.179873 0
0.958925 -0.156832 0
0.939178 -0.156192 0
0.919773 -0.154458 0
1.16794 -0.26182 0
1.14868 -0.254525 0
1.13079 -0.246101 0
1.11281 -0.233574 0
1.09386 -0.227717 0
1.07605 -0.220816 0
1.05287 -0.206685 0
1.03419 -0.202104 0
1.0165 -0.196547 0
1.13079 -0.246101 0
1.11449 -0.236791 0
1.09964 -0.226723 0
1.07605 -0.220816 0
1.05965 -0.213102 0
1.04455 -0.204623 0
1.0165 -0.196547 0
1.00011 -0.190184 0
0.984885 -0.183074 0
1.05287 -0.206685 0
1.03419 -0.202104 0
1.0165 -0.196547 0
0.988635 -0.179873 0
0.97019 -0.176352 0
0.952589 -0.171923 0
0.919773 -0.154458 0
0.901546 -0.151811 0
0.884036 -0.148352 0
1.0165 -0.196547 0
1.00011 -0.190184 0
0.984885 -0.183074 0
0.952589 -0.171923 0
0.936115 -0.16674 0
0.920657 -0.160862 0
0.884036 -0.148352 0
0.867531 -0.144205 0
0.851949 -0.139415 0
1.15008 -0.0851558 0
1.13584 -0.0990948 0
1.11935 -0.111713 0
1.06719 -0.0679565 0
1.05386 -0.0798654 0
1.03844 -0.0906932 0
0.981529 -0.051357 0
0.96901 -0.0614124 0
0.954439 -0.0706009 0
1.11935 -0.111713 0
1.10177 -0.122813 0
1.08244 -0.132347 0
1.03844 -0.0906932 0
1.02193 -0.100267 0
1.00375 -0.108545 0
0.954439 -0.0706009 0
0.938812 -0.0787758 0
0.921547 -0.0858972 0
0.981529 -0.051357 0
0.96901 -0.0614124 0
0.954439 -0.0706009 0
0.890429 -0.0366489 0
0.87891 -0.0448277 0
0.865365 -0.0523324 0
0.788552 -0.0231535 0
0.778534 -0.0294813 0
0.766405 -0.035325 0
0.954439 -0.0706009 0
0.938812 -0.0787758 0
0.921547 -0.0858972 0
0.865365 -0.0523324 0
0.85072 -0.0590396 0
0.834436 -0.0649169 0
0.766405 -0.035325 0
0.753115 -0.0405867 0
0.738129 -0.0452317 0
1.08244 -0.132347 0
1.06279 -0.140251 0
1.04196 -0.146554 0
1.00375 -0.108545 0
0.98515 -0.115469 0
0.965391 -0.121061 0
0.921547 -0.0858972 0
0.903802 -0.091914 0
0.884902 -0.0968377 0
1.04196 -0.146554 0
1.02132 -0.151292 0
1.00006 -0.154504 0
0.965391 -0.121061 0
0.945673 -0.125347 0
0.925299 -0.128351 0
0.884902 -0.0968377 0
0.865942 -0.100687 0
0.846306 -0.103476 0
0.921547 -0.0858972 0
0.903802 -0.091914 0
0.884902 -0.0968377 0
0.834436 -0.0649169 0
0.817587 -0.0699206 0
0.79956 -0.0740542 0
0.738129 -0.0452317 0
0.722474 -0.0492255 0
0.705586 -0.0525621 0
0.884902 -0.0968377 0
0.865942 -0.100687 0
0.846306 -0.103476 0
0.79956 -0.0740542 0
0.781371 -0.0773328 0
0.762466 -0.0797603 0
0.705586 -0.0525621 0
0.688427 -0.0552544 0
0.670497 -0.0572964 0
0.788552 -0.0231535 0
0.778534 -0.0294813 0
0.766405 -0.035325 0
0.666394 -0.0124666 0
0.658842 -0.0168535 0
0.649103 -0.0209331 0
0.50836 -0.00429768 0
0.504137 -0.00675006 0
0.497784 -0.00905399 0
0.766405 -0.035325 0
0.753115 -0.0405867 0
0.738129 -0.0452317 0
0.649103 -0.0209331 0
0.638083 -0.0246334 0
0.62527 -0.0279222 0
0.497784 -0.00905399 0
0.49012 -0.0111701 0
0.480685 -0.0130702 0
0.50836 -0.00429768 0
0.504137 -0.00675006 0
0.497784 -0.00905399 0
0.294257 -0.000973671 0
0.293277 -0.00174037 0
0.29063 -0.00246256 0
0 0 0
0 0 0
0 0 0
0.497784 -0.00905399 0
0.49012 -0.0111701 0
0.480685 -0.0130702 0
0.29063 -0.00246256 0
0.287095 -0.00313085 0
0.282111 -0.00372384 0
0 0 0
0 0 0
0 0 0
0.738129 -0.0452317 0
0.722474 -0.0492255 0
0.705586 -0.0525621 0
0.62527 -0.0279222 0
0.611642 -0.0307752 0
0.596679 -0.0331785 0
0.480685 -0.0130702 0
0.470328 -0.0147469 0
0.458619 -0.0161768 0
0.705586 -0.0525621 0
0.688427 -0.0552544 0