# vtk DataFile Version 3.0
#This file was generated by the deal.II library on 2025/1/3 at 14:00:54
ASCII
DATASET UNSTRUCTURED_GRID

POINTS 34560 double
1.1 1.1 0
1.03125 1.09531 0
0.9625 1.09063 0
1.09375 1.03125 0
1.02539 1.02686 0
0.957031 1.02246 0
1.0875 0.9625 0
1.01953 0.958398 0
0.951563 0.954297 0
0.9625 1.09063 0
0.89375 1.08594 0
0.825 1.08125 0
0.957031 1.02246 0
0.888672 1.01807 0
0.820312 1.01367 0
0.951563 0.954297 0
0.883594 0.950195 0
0.815625 0.946094 0
1.0875 0.9625 0
1.01953 0.958398 0
0.951563 0.954297 0
1.08125 0.89375 0
1.01367 0.889941 0
0.946094 0.886133 0
1.075 0.825 0
1.00781 0.821484 0
0.940625 0.817969 0
0.951563 0.954297 0
0.883594 0.950195 0
0.815625 0.946094 0
0.946094 0.886133 0
0.878516 0.882324 0
0.810938 0.878516 0
0.940625 0.817969 0
0.873438 0.814453 0
0.80625 0.810937 0
0.825 1.08125 0
0.75625 1.07656 0
0.6875 1.07187 0
0.820312 1.01367 0
0.751953 1.00928 0
0.683594 1.00488 0
0.815625 0.946094 0
0.747656 0.941992 0
0.679688 0.937891 0
0.6875 1.07187 0
0.61875 1.06719 0
0.55 1.0625 0
0.683594 1.00488 0
0.615234 1.00049 0
0.546875 0.996094 0
0.679688 0.937891 0
0.611719 0.933789 0
0.54375 0.929688 0
0.815625 0.946094 0
0.747656 0.941992 0
0.679688 0.937891 0
0.810938 0.878516 0
0.743359 0.874707 0
0.675781 0.870898 0
0.80625 0.810937 0
0.739063 0.807422 0
0.671875 0.803906 0
0.679688 0.937891 0
0.611719 0.933789 0
0.54375 0.929688 0
0.675781 0.870898 0
0.608203 0.86709 0
0.540625 0.863281 0
0.671875 0.803906 0
0.604688 0.800391 0
0.5375 0.796875 0
1.075 0.825 0
1.00781 0.821484 0
0.940625 0.817969 0
1.06875 0.75625 0
1.00195 0.753027 0
0.935156 0.749805 0
1.0625 0.6875 0
0.996094 0.68457 0
0.929688 0.681641 0
0.940625 0.817969 0
0.873438 0.814453 0
0.80625 0.810937 0
0.935156 0.749805 0
0.868359 0.746582 0
0.801563 0.743359 0
0.929688 0.681641 0
0.863281 0.678711 0
0.796875 0.675781 0
1.0625 0.6875 0
0.996094 0.68457 0
0.929688 0.681641 0
1.05625 0.61875 0
0.990234 0.616113 0
0.924219 0.613477 0
1.05 0.55 0
0.984375 0.547656 0
0.91875 0.545313 0
0.929688 0.681641 0
0.863281 0.678711 0
0.796875 0.675781 0
0.924219 0.613477 0
0.858203 0.61084 0
0.792188 0.608203 0
0.91875 0.545313 0
0.853125 0.542969 0
0.7875 0.540625 0
0.80625 0.810937 0
0.739063 0.807422 0
0.671875 0.803906 0
0.801563 0.743359 0
0.734766 0.740137 0
0.667969 0.736914 0
0.796875 0.675781 0
0.730469 0.672852 0
0.664062 0.669922 0
0.671875 0.803906 0
0.604688 0.800391 0
0.5375 0.796875 0
0.667969 0.736914 0
0.601172 0.733691 0
0.534375 0.730469 0
0.664062 0.669922 0
0.597656 0.666992 0
0.53125 0.664062 0
0.796875 0.675781 0
0.730469 0.672852 0
0.664062 0.669922 0
0.792188 0.608203 0
0.726172 0.605566 0
0.660156 0.60293 0
0.7875 0.540625 0
0.721875 0.538281 0
0.65625 0.535937 0
0.664062 0.669922 0
0.597656 0.666992 0
0.53125 0.664062 0
0.660156 0.60293 0
0.594141 0.600293 0
0.528125 0.597656 0
0.65625 0.535937 0
0.590625 0.533594 0
0.525 0.53125 0
0.55 1.0625 0
0.48125 1.05781 0
0.4125 1.05313 0
0.546875 0.996094 0
0.478516 0.991699 0
0.410156 0.987305 0
0.54375 0.929688 0
0.475781 0.925586 0
0.407813 0.921484 0
0.4125 1.05313 0
0.34375 1.04844 0
0.275 1.04375 0
0.410156 0.987305 0
0.341797 0.98291 0
0.273438 0.978516 0
0.407813 0.921484 0
0.339844 0.917383 0
0.271875 0.913281 0
0.54375 0.929688 0
0.475781 0.925586 0
0.407813 0.921484 0
0.540625 0.863281 0
0.473047 0.859473 0
0.405469 0.855664 0
0.5375 0.796875 0
0.470313 0.793359 0
0.403125 0.789844 0
0.407813 0.921484 0
0.339844 0.917383 0
0.271875 0.913281 0
0.405469 0.855664 0
0.337891 0.851855 0
0.270313 0.848047 0
0.403125 0.789844 0
0.335938 0.786328 0
0.26875 0.782813 0
0.275 1.04375 0
0.20625 1.03906 0
0.1375 1.03437 0
0.273438 0.978516 0
0.205078 0.974121 0
0.136719 0.969727 0
0.271875 0.913281 0
0.203906 0.90918 0
0.135938 0.905078 0
0.1375 1.03437 0
0.06875 1.02969 0
0 1.025 0
0.136719 0.969727 0
0.0683594 0.965332 0
0 0.960937 0
0.135938 0.905078 0
0.0679688 0.900977 0
0 0.896875 0
0.271875 0.913281 0
0.203906 0.90918 0
0.135938 0.905078 0
0.270313 0.848047 0
0.202734 0.844238 0
0.135156 0.84043 0
0.26875 0.782813 0
0.201563 0.779297 0
0.134375 0.775781 0
0.135938 0.905078 0
0.0679688 0.900977 0
0 0.896875 0
0.135156 0.84043 0
0.0675781 0.836621 0
0 0.832812 0
0.134375 0.775781 0
0.0671875 0.772266 0
0 0.76875 0
0.5375 0.796875 0
0.470313 0.793359 0
0.403125 0.789844 0
0.534375 0.730469 0
0.467578 0.727246 0
0.400781 0.724023 0
0.53125 0.664062 0
0.464844 0.661133 0
0.398438 0.658203 0
0.403125 0.789844 0
0.335938 0.786328 0
0.26875 0.782813 0
0.400781 0.724023 0
0.333984 0.720801 0
0.267188 0.717578 0
0.398438 0.658203 0
0.332031 0.655273 0
0.265625 0.652344 0
0.53125 0.664062 0
0.464844 0.661133 0
0.398438 0.658203 0
0.528125 0.597656 0
0.462109 0.59502 0
0.396094 0.592383 0
0.525 0.53125 0
0.459375 0.528906 0
0.39375 0.526563 0
0.398438 0.658203 0
0.332031 0.655273 0
0.265625 0.652344 0
0.396094 0.592383 0
0.330078 0.589746 0
0.264062 0.587109 0
0.39375 0.526563 0
0.328125 0.524219 0
0.2625 0.521875 0
0.26875 0.782813 0
0.201563 0.779297 0
0.134375 0.775781 0
0.267188 0.717578 0
0.200391 0.714355 0
0.133594 0.711133 0
0.265625 0.652344 0
0.199219 0.649414 0
0.132812 0.646484 0
0.134375 0.775781 0
0.0671875 0.772266 0
0 0.76875 0
0.133594 0.711133 0
0.0667969 0.70791 0
0 0.704687 0
0.132812 0.646484 0
0.0664062 0.643555 0
0 0.640625 0
0.265625 0.652344 0
0.199219 0.649414 0
0.132812 0.646484 0
0.264062 0.587109 0
0.198047 0.584473 0
0.132031 0.581836 0
0.2625 0.521875 0
0.196875 0.519531 0
0.13125 0.517187 0
0.132812 0.646484 0
0.0664062 0.643555 0
0 0.640625 0
0.132031 0.581836 0
0.0660156 0.579199 0
0 0.576562 0
0.13125 0.517187 0
0.065625 0.514844 0
0 0.5125 0
1.05 0.55 0
0.984375 0.547656 0
0.91875 0.545313 0
1.04375 0.48125 0
0.978516 0.479199 0
0.913281 0.477148 0
1.0375 0.4125 0
0.972656 0.410742 0
0.907813 0.408984 0
0.91875 0.545313 0
0.853125 0.542969 0
0.7875 0.540625 0
0.913281 0.477148 0
0.848047 0.475098 0
0.782813 0.473047 0
0.907813 0.408984 0
0.842969 0.407227 0
0.778125 0.405469 0
1.0375 0.4125 0
0.972656 0.410742 0
0.907813 0.408984 0
1.03125 0.34375 0
0.966797 0.342285 0
0.902344 0.34082 0
1.025 0.275 0
0.960937 0.273828 0
0.896875 0.272656 0
0.907813 0.408984 0
0.842969 0.407227 0
0.778125 0.405469 0
0.902344 0.34082 0
0.837891 0.339355 0
0.773438 0.337891 0
0.896875 0.272656 0
0.832812 0.271484 0
0.76875 0.270313 0
0.7875 0.540625 0
0.721875 0.538281 0
0.65625 0.535937 0
0.782813 0.473047 0
0.717578 0.470996 0
0.652344 0.468945 0
0.778125 0.405469 0
0.713281 0.403711 0
0.648438 0.401953 0
0.65625 0.535937 0
0.590625 0.533594 0
0.525 0.53125 0
0.652344 0.468945 0
0.587109 0.466895 0
0.521875 0.464844 0
0.648438 0.401953 0
0.583594 0.400195 0
0.51875 0.398438 0
0.778125 0.405469 0
0.713281 0.403711 0
0.648438 0.401953 0
0.773438 0.337891 0
0.708984 0.336426 0
0.644531 0.334961 0
0.76875 0.270313 0
0.704687 0.269141 0
0.640625 0.267969 0
0.648438 0.401953 0
0.583594 0.400195 0
0.51875 0.398438 0
0.644531 0.334961 0
0.580078 0.333496 0
0.515625 0.332031 0
0.640625 0.267969 0
0.576562 0.266797 0
0.5125 0.265625 0
1.025 0.275 0
0.960937 0.273828 0
0.896875 0.272656 0
1.01875 0.20625 0
0.955078 0.205371 0
0.891406 0.204492 0
1.0125 0.1375 0
0.949219 0.136914 0
0.885937 0.136328 0
0.896875 0.272656 0
0.832812 0.271484 0
0.76875 0.270313 0
0.891406 0.204492 0
0.827734 0.203613 0
0.764062 0.202734 0
0.885937 0.136328 0
0.822656 0.135742 0
0.759375 0.135156 0
1.0125 0.1375 0
0.949219 0.136914 0
0.885937 0.136328 0
1.00625 0.06875 0
0.943359 0.068457 0
0.880469 0.0681641 0
1 0 0
0.9375 0 0
0.875 0 0
0.885937 0.136328 0
0.822656 0.135742 0
0.759375 0.135156 0
0.880469 0.0681641 0
0.817578 0.0678711 0
0.754687 0.0675781 0
0.875 0 0
0.8125 0 0
0.75 0 0
0.76875 0.270313 0
0.704687 0.269141 0
0.640625 0.267969 0
0.764062 0.202734 0
0.700391 0.201855 0
0.636719 0.200977 0
0.759375 0.135156 0
0.696094 0.13457 0
0.632812 0.133984 0
0.640625 0.267969 0
0.576562 0.266797 0
0.5125 0.265625 0
0.636719 0.200977 0
0.573047 0.200098 0
0.509375 0.199219 0
0.632812 0.133984 0
0.569531 0.133398 0
0.50625 0.132812 0
0.759375 0.135156 0
0.696094 0.13457 0
0.632812 0.133984 0
0.754687 0.0675781 0
0.691797 0.0672852 0
0.628906 0.0669922 0
0.75 0 0
0.6875 0 0
0.625 0 0
0.632812 0.133984 0
0.569531 0.133398 0
0.50625 0.132812 0
0.628906 0.0669922 0
0.566016 0.0666992 0
0.503125 0.0664062 0
0.625 0 0
0.5625 0 0
0.5 0 0
0.525 0.53125 0
0.459375 0.528906 0
0.39375 0.526563 0
0.521875 0.464844 0
0.456641 0.462793 0
0.391406 0.460742 0
0.51875 0.398438 0
0.453906 0.39668 0
0.389063 0.394922 0
0.39375 0.526563 0
0.328125 0.524219 0
0.2625 0.521875 0
0.391406 0.460742 0
0.326172 0.458691 0
0.260938 0.456641 0
0.389063 0.394922 0
0.324219 0.393164 0
0.259375 0.391406 0
0.51875 0.398438 0
0.453906 0.39668 0
0.389063 0.394922 0
0.515625 0.332031 0
0.451172 0.330566 0
0.386719 0.329102 0
0.5125 0.265625 0
0.448437 0.264453 0
0.384375 0.263281 0
0.389063 0.394922 0
0.324219 0.393164 0
0.259375 0.391406 0
0.386719 0.329102 0
0.322266 0.327637 0
0.257812 0.326172 0
0.384375 0.263281 0
0.320312 0.262109 0
0.25625 0.260937 0
0.2625 0.521875 0
0.196875 0.519531 0
0.13125 0.517187 0
0.260938 0.456641 0
0.195703 0.45459 0
0.130469 0.452539 0
0.259375 0.391406 0
0.194531 0.389648 0
0.129688 0.387891 0
0.13125 0.517187 0
0.065625 0.514844 0
0 0.5125 0
0.130469 0.452539 0
0.0652344 0.450488 0
0 0.448437 0
0.129688 0.387891 0
0.0648438 0.386133 0
0 0.384375 0
0.259375 0.391406 0
0.194531 0.389648 0
0.129688 0.387891 0
0.257812 0.326172 0
0.193359 0.324707 0
0.128906 0.323242 0
0.25625 0.260937 0
0.192187 0.259766 0
0.128125 0.258594 0
0.129688 0.387891 0
0.0648438 0.386133 0
0 0.384375 0
0.128906 0.323242 0
0.0644531 0.321777 0
0 0.320312 0
0.128125 0.258594 0
0.0640625 0.257422 0
0 0.25625 0
0.5125 0.265625 0
0.448437 0.264453 0
0.384375 0.263281 0
0.509375 0.199219 0
0.445703 0.19834 0
0.382031 0.197461 0
0.50625 0.132812 0
0.442969 0.132227 0
0.379688 0.131641 0
0.384375 0.263281 0
0.320312 0.262109 0
0.25625 0.260937 0
0.382031 0.197461 0
0.318359 0.196582 0
0.254687 0.195703 0
[...]
POINT_DATA 34560
VECTORS v double
1.2002 -0.245083 0
1.19006 -0.215801 0
1.18173 -0.189651 0
1.16915 -0.232344 0
1.15682 -0.206159 0
1.14678 -0.181915 0
1.13328 -0.218648 0
1.11948 -0.194759 0
1.10761 -0.172456 0
1.18173 -0.189651 0
1.17463 -0.165359 0
1.16897 -0.143574 0
1.14678 -0.181915 0
1.13764 -0.159467 0
1.13039 -0.139011 0
1.10761 -0.172456 0
1.09694 -0.151739 0
1.088 -0.132659 0
1.13328 -0.218648 0
1.11948 -0.194759 0
1.10761 -0.172456 0
1.09134 -0.202471 0
1.07612 -0.181083 0
1.0629 -0.160985 0
1.04332 -0.186375 0
1.02725 -0.167254 0
1.01305 -0.149138 0
1.10761 -0.172456 0
1.09694 -0.151739 0
1.088 -0.132659 0
1.0629 -0.160985 0
1.05092 -0.14217 0
1.04068 -0.124738 0
1.01305 -0.149138 0
1.00017 -0.13208 0
0.988957 -0.116166 0
1.16897 -0.143574 0
1.16373 -0.123709 0
1.15955 -0.10592 0
1.13039 -0.139011 0
1.12342 -0.120266 0
1.11787 -0.103338 0
1.088 -0.132659 0
1.07963 -0.11513 0
1.07265 -0.0991631 0
1.15955 -0.10592 0
1.15539 -0.0898717 0
1.15191 -0.0755384 0
1.11787 -0.103338 0
1.1123 -0.0879626 0
1.10773 -0.0741529 0
1.07265 -0.0991631 0
1.06591 -0.0846179 0
1.06021 -0.0714659 0
1.088 -0.132659 0
1.07963 -0.11513 0
1.07265 -0.0991631 0
1.04068 -0.124738 0
1.03117 -0.108601 0
1.02307 -0.0938187 0
0.988957 -0.116166 0
0.978592 -0.101367 0
0.969611 -0.0877325 0
1.07265 -0.0991631 0
1.06591 -0.0846179 0
1.06021 -0.0714659 0
1.02307 -0.0938187 0
1.0154 -0.0802714 0
1.0088 -0.0679564 0
0.969611 -0.0877325 0
0.961208 -0.0751883 0
0.953893 -0.0637342 0
1.04332 -0.186375 0
1.02725 -0.167254 0
1.01305 -0.149138 0
0.989924 -0.169431 0
0.973243 -0.152479 0
0.958351 -0.13632 0
0.931701 -0.152553 0
0.914624 -0.137585 0
0.899226 -0.123236 0
1.01305 -0.149138 0
1.00017 -0.13208 0
0.988957 -0.116166 0
0.958351 -0.13632 0
0.944782 -0.12101 0
0.932825 -0.106657 0
0.899226 -0.123236 0
0.885157 -0.109586 0
0.872633 -0.0967291 0
0.931701 -0.152553 0
0.914624 -0.137585 0
0.899226 -0.123236 0
0.868508 -0.134815 0
0.851163 -0.121801 0
0.835448 -0.109278 0
0.80062 -0.117462 0
0.783199 -0.10626 0
0.767331 -0.095434 0
0.899226 -0.123236 0
0.885157 -0.109586 0
0.872633 -0.0967291 0
0.835448 -0.109278 0
0.821044 -0.097315 0
0.808146 -0.0860034 0
0.767331 -0.095434 0
0.752761 -0.0850576 0
0.739646 -0.0752135 0
0.988957 -0.116166 0
0.978592 -0.101367 0
0.969611 -0.0877325 0
0.932825 -0.106657 0
0.921799 -0.0932482 0
0.912132 -0.0808399 0
0.872633 -0.0967291 0
0.861113 -0.084676 0
0.850921 -0.0734784 0
0.969611 -0.0877325 0
0.961208 -0.0751883 0
0.953893 -0.0637342 0
0.912132 -0.0808399 0
0.903164 -0.0693822 0
0.895291 -0.0588828 0
0.850921 -0.0734784 0
0.841529 -0.0631124 0
0.833231 -0.0535859 0
0.872633 -0.0967291 0
0.861113 -0.084676 0
0.850921 -0.0734784 0
0.808146 -0.0860034 0
0.796294 -0.0753612 0
0.785752 -0.0654429 0
0.739646 -0.0752135 0
0.727612 -0.0659307 0
0.716862 -0.0572575 0
0.850921 -0.0734784 0
0.841529 -0.0631124 0
0.833231 -0.0535859 0
0.785752 -0.0654429 0
0.776082 -0.0562367 0
0.76751 -0.0477581 0
0.716862 -0.0572575 0
0.707046 -0.0491971 0
0.698324 -0.0417633 0
1.15191 -0.0755384 0
1.14829 -0.0626694 0
1.14508 -0.0511662 0
1.10773 -0.0741529 0
1.10304 -0.0616788 0
1.09901 -0.0504762 0
1.06021 -0.0714659 0
1.05461 -0.0595469 0
1.04975 -0.0487927 0
1.14508 -0.0511662 0
1.14168 -0.0407964 0
1.13848 -0.0314367 0
1.09901 -0.0504762 0
1.09485 -0.0403331 0
1.09109 -0.0311402 0
1.04975 -0.0487927 0
1.04495 -0.0390266 0
1.04066 -0.030145 0
1.06021 -0.0714659 0
1.05461 -0.0595469 0
1.04975 -0.0487927 0
1.0088 -0.0679564 0
1.00249 -0.0567425 0
0.996973 -0.0465829 0
0.953893 -0.0637342 0
0.947009 -0.0532749 0
0.940956 -0.0437672 0
1.04975 -0.0487927 0
1.04495 -0.0390266 0
1.04066 -0.030145 0
0.996973 -0.0465829 0
0.991682 -0.0373257 0
0.986967 -0.0288782 0
0.940956 -0.0437672 0
0.935269 -0.0350876 0
0.930215 -0.0271523 0
1.13848 -0.0314367 0
1.13511 -0.0228405 0
1.13182 -0.0148751 0
1.09109 -0.0311402 0
1.08727 -0.0226782 0
1.0837 -0.0148097 0
1.04066 -0.030145 0
1.03645 -0.0219489 0
1.03261 -0.0143177 0
1.13182 -0.0148751 0
1.12841 -0.00728813 0
1.125 0 0
1.0837 -0.0148097 0
1.08011 -0.00729962 0
1.07666 0 0
1.03261 -0.0143177 0
1.02887 -0.0070315 0
1.02539 0 0
1.04066 -0.030145 0
1.03645 -0.0219489 0
1.03261 -0.0143177 0
0.986967 -0.0288782 0
0.982485 -0.0210624 0
0.978443 -0.0137721 0
0.930215 -0.0271523 0
0.925515 -0.0198049 0
0.921323 -0.0129443 0
1.03261 -0.0143177 0
1.02887 -0.0070315 0
1.02539 0 0
0.978443 -0.0137721 0
0.974642 -0.00679441 0
0.971191 0 0
0.921323 -0.0129443 0
0.917479 -0.00637321 0
0.914062 0 0
0.953893 -0.0637342 0
0.947009 -0.0532749 0
0.940956 -0.0437672 0
0.895291 -0.0588828 0
0.88797 -0.0492688 0
0.881512 -0.0405076 0
0.833231 -0.0535859 0
0.82559 -0.0448497 0
0.818832 -0.0368752 0
0.940956 -0.0437672 0
0.935269 -0.0350876 0
0.930215 -0.0271523 0
0.881512 -0.0405076 0
0.875538 -0.0324968 0
0.870245 -0.0251654 0
0.818832 -0.0368752 0
0.81266 -0.0295822 0
0.807207 -0.0229071 0
0.833231 -0.0535859 0
0.82559 -0.0448497 0
0.818832 -0.0368752 0
0.76751 -0.0477581 0
0.759677 -0.0399711 0
0.752746 -0.0328561 0
0.698324 -0.0417633 0
0.69041 -0.0349351 0
0.68341 -0.0286958 0
0.818832 -0.0368752 0
0.81266 -0.0295822 0
0.807207 -0.0229071 0
0.752746 -0.0328561 0
0.74648 -0.0263483 0
0.740963 -0.0203966 0
0.68341 -0.0286958 0
0.67714 -0.0229974 0
0.67164 -0.0177957 0
0.930215 -0.0271523 0
0.925515 -0.0198049 0
0.921323 -0.0129443 0
0.870245 -0.0251654 0
0.86541 -0.0183712 0
0.861142 -0.0120227 0
0.807207 -0.0229071 0
0.802298 -0.0167252 0
0.798004 -0.0109505 0
0.921323 -0.0129443 0
0.917479 -0.00637321 0
0.914062 0 0
0.861142 -0.0120227 0
0.857324 -0.00593304 0
0.854004 0 0
0.798004 -0.0109505 0
0.794235 -0.00540734 0
0.791016 0 0
0.807207 -0.0229071 0
0.802298 -0.0167252 0
0.798004 -0.0109505 0
0.740963 -0.0203966 0
0.736061 -0.0148897 0
0.731811 -0.00975095 0
0.67164 -0.0177957 0
0.666807 -0.0129956 0
0.662654 -0.00852513 0
0.798004 -0.0109505 0
0.794235 -0.00540734 0
0.791016 0 0
0.731811 -0.00975095 0
0.728155 -0.00481483 0
0.725098 0 0
0.662654 -0.00852513 0
0.659139 -0.00422889 0
0.65625 0 0
0.80062 -0.117462 0
0.783199 -0.10626 0
0.767331 -0.095434 0
0.728271 -0.0995717 0
0.710833 -0.090124 0
0.694911 -0.0809729 0
0.651434 -0.0820663 0
0.634096 -0.0742899 0
0.618226 -0.0667423 0
0.767331 -0.095434 0
0.752761 -0.0850576 0
0.739646 -0.0752135 0
0.694911 -0.0809729 0
0.680267 -0.0721812 0
0.667053 -0.0638251 0
0.618226 -0.0667423 0
0.603632 -0.0594801 0
0.590441 -0.0525693 0
0.651434 -0.0820663 0
0.634096 -0.0742899 0
0.618226 -0.0667423 0
0.56979 -0.0641027 0
0.552641 -0.0579711 0
0.536951 -0.052023 0
0.48175 -0.046751 0
0.465159 -0.0422179 0
0.449995 -0.0378289 0
0.618226 -0.0667423 0
0.603632 -0.0594801 0
0.590441 -0.0525693 0
0.536951 -0.052023 0
0.522533 -0.0463012 0
0.509512 -0.0408606 0
0.449995 -0.0378289 0
0.436095 -0.0336122 0
0.423572 -0.0296127 0
0.739646 -0.0752135 0
0.727612 -0.0659307 0
0.716862 -0.0572575 0
0.667053 -0.0638251 0
0.654947 -0.0559336 0
0.644116 -0.0485506 0
0.590441 -0.0525693 0
0.57839 -0.0460387 0
0.567606 -0.0399259 0
0.716862 -0.0572575 0
0.707046 -0.0491971 0
0.698324 -0.0417633 0
0.644116 -0.0485506 0
0.63427 -0.0416838 0
0.625523 -0.0353485 0
0.567606 -0.0399259 0
0.557851 -0.0342426 0
0.549202 -0.0290018 0
0.590441 -0.0525693 0
0.57839 -0.0460387 0
0.567606 -0.0399259 0
0.509512 -0.0408606 0
0.497658 -0.0357245 0
0.487074 -0.0309229 0
0.423572 -0.0296127 0
0.412223 -0.025845 0
0.402128 -0.0223327 0
0.567606 -0.0399259 0
0.557851 -0.0342426 0
0.549202 -0.0290018 0
0.487074 -0.0309229 0
0.477558 -0.0264658 0
0.469155 -0.0223635 0
0.402128 -0.0223327 0
0.393111 -0.0190815 0
0.385195 -0.0160989 0
0.48175 -0.046751 0
0.465159 -0.0422179 0
0.449995 -0.0378289 0
0.38447 -0.0297807 0
0.369151 -0.0267927 0
0.355225 -0.023917 0
0.273457 -0.0150343 0
0.260932 -0.0134901 0
0.249628 -0.0120161 0
0.449995 -0.0378289 0
0.436095 -0.0336122 0
0.423572 -0.0296127 0
0.355225 -0.023917 0
0.342513 -0.0211686 0
0.331124 -0.0185781 0
0.249628 -0.0120161 0
0.239377 -0.0106074 0
0.230262 -0.00929004 0
0.273457 -0.0150343 0
0.260932 -0.0134901 0
0.249628 -0.0120161 0
0.144906 -0.00417609 0
0.137452 -0.00371611 0
0.130822 -0.00328883 0
0 0 0
0 0 0
0 0 0
0.249628 -0.0120161 0
0.239377 -0.0106074 0
0.230262 -0.00929004 0
0.130822 -0.00328883 0
0.124833 -0.00287687 0
0.119576 -0.0025017 0
0 0 0
0 0 0
0 0 0
0.423572 -0.0296127 0
0.412223 -0.025845 0
0.402128 -0.0223327 0
0.331124 -0.0185781 0
0.320865 -0.016152 0
0.311794 -0.0139048 0
0.230262 -0.00929004 0
0.22211 -0.00806076 0
0.214956 -0.00693115 0
0.402128 -0.0223327 0
0.393111 -0.0190815 0
0.385195 -0.0160989 0
0.311794 -0.0139048 0
0.303751 -0.0118372 0
0.29674 -0.00995289 0
0.214956 -0.00693115 0
0.208661 -0.0058964 0
0.203211 -0.00496095 0
0.230262 -0.00929004 0
0.22211 -0.00806076 0
0.214956 -0.00693115 0
0.119576 -0.0025017 0
0.114898 -0.00215213 0
0.110836 -0.00183912 0
0 0 0
0 0 0
0 0 0
0.214956 -0.00693115 0
0.208661 -0.0058964 0
0.203211 -0.00496095 0
0.110836 -0.00183912 0
0.107277 -0.00155281 0
0.104215 -0.00130034 0
0 0 0
0 0 0
0 0 0
0.698324 -0.0417633 0
0.69041 -0.0349351 0
0.68341 -0.0286958 0
0.625523 -0.0353485 0
0.61764 -0.0295305 0
0.610685 -0.0242187 0
0.549202 -0.0290018 0
0.541463 -0.0241957 0
0.534664 -0.0198149 0
0.68341 -0.0286958 0
0.67714 -0.0229974 0
0.67164 -0.0177957 0
0.610685 -0.0242187 0
0.60451 -0.019375 0
0.599121 -0.0149666 0
0.534664 -0.0198149 0
0.52868 -0.0158323 0
0.523493 -0.0122212 0
0.549202 -0.0290018 0
0.541463 -0.0241957 0
0.534664 -0.0198149 0
0.469155 -0.0223635 0
0.461698 -0.0186091 0
0.455191 -0.0151955 0
0.385195 -0.0160989 0
0.378232 -0.0133777 0
0.372203 -0.0109108 0
0.534664 -0.0198149 0
0.52868 -0.0158323 0
0.523493 -0.0122212 0
0.455191 -0.0151955 0
0.44952 -0.0121006 0
0.444648 -0.00930621 0
0.372203 -0.0109108 0
0.367007 -0.00868068 0
0.36259 -0.00667521 0
0.67164 -0.0177957 0
0.666807 -0.0129956 0
0.662654 -0.00852513 0
0.599121 -0.0149666 0
0.594437 -0.0109115 0
0.59045 -0.00714866 0
0.523493 -0.0122212 0
0.519029 -0.00891606 0
0.515269 -0.00586301 0
0.662654 -0.00852513 0
0.659139 -0.00422889 0
0.65625 0 0
0.59045 -0.00714866 0
0.587134 -0.00353366 0
0.584473 0 0
0.515269 -0.00586301 0
0.512189 -0.00293236 0
0.509766 0 0
0.523493 -0.0122212 0
0.519029 -0.00891606 0
0.515269 -0.00586301 0
0.444648 -0.00930621 0
0.4405 -0.00676019 0
0.437044 -0.00442638 0
0.36259 -0.00667521 0
0.358872 -0.00485768 0
0.355809 -0.00319908 0
0.515269 -0.00586301 0
0.512189 -0.00293236 0
0.509766 0 0
0.437044 -0.00442638 0
0.43426 -0.00219219 0
0.432129 0 0
0.355809 -0.00319908 0
0.353378 -0.00162188 0
0.351562 0 0
0.385195 -0.0160989 0
0.378232 -0.0133777 0
0.372203 -0.0109108 0
0.29674 -0.00995289 0
0.29063 -0.00824319 0
0.285385 -0.00670057 0
0.203211 -0.00496095 0
0.1985 -0.00411613 0
0.194485 -0.00335764 0
0.372203 -0.0109108 0
0.367007 -0.00868068 0
0.36259 -0.00667521 0
0.285385 -0.00670057 0
0.280915 -0.00530911 0
0.277158 -0.00406236 0
0.194485 -0.00335764 0
0.191091 -0.00267361 0
0.188266 -0.00206308 0
0.203211 -0.00496095 0
0.1985 -0.00411613 0
0.194485 -0.00335764 0
0.104215 -0.00130034 0
0.10158 -0.00107312 0
0.0993385 -0.000872641 0
0 0 0
0 0 0
0 0 0
0.194485 -0.00335764 0
0.191091 -0.00267361 0
0.188266 -0.00206308 0
0.0993385 -0.000872641 0
0.09745 -0.000689296 0
0.0958724 -0.00052895 0
0 0 0
0 0 0
0 0 0
0.36259 -0.00667521 0
0.358872 -0.00485768 0
0.355809 -0.00319908 0
0.277158 -0.00406236 0
0.274037 -0.00293163 0
0.271503 -0.00190425 0
0.188266 -0.00206308 0
0.18595 -0.0015088 0
0.184099 -0.000997263 0
0.355809 -0.00319908 0
0.353378 -0.00162188 0
0.351562 0 0
0.271503 -0.00190425 0
0.269516 -0.000926364 0
0.268066 0 0
0.184099 -0.000997263 0
0.182666 -0.000515288 0
0.181641 0 0
0.188266 -0.00206308 0
0.18595 -0.0015088 0
0.184099 -0.000997263 0
0.0958724 -0.00052895 0
0.094587 -0.000383066 0
0.0935804 -0.000245041 0
0 0 0
0 0 0
0 0 0
0.184099 -0.000997263 0
0.182666 -0.000515288 0
0.181641 0 0
0.0935804 -0.000245041 0
0.0928026 -9.46219e-05 0
0.0922852 0 0
0 0 0
0 0 0
0 0 0
1.63313 -0.479892 0
1.59318 -0.490959 0
1.55192 -0.497148 0
1.58004 -0.430878 0
1.54293 -0.441257 0
1.50479 -0.447352 0
1.52142 -0.386239 0
1.48779 -0.396098 0
1.45317 -0.402268 0
1.55192 -0.497148 0
1.5111 -0.497985 0
1.46993 -0.493877 0
1.50479 -0.447352 0
1.46707 -0.449144 0
1.42911 -0.446614 0
1.45317 -0.402268 0
1.41901 -0.404827 0
1.38462 -0.403596 0
1.52142 -0.386239 0
1.48779 -0.396098 0
1.45317 -0.402268 0
1.4639 -0.34715 0
1.43297 -0.355459 0
1.40121 -0.360703 0
1.40267 -0.308818 0
1.37323 -0.316336 0
1.34311 -0.32122 0
1.45317 -0.402268 0
1.41901 -0.404827 0
1.38462 -0.403596 0
1.40121 -0.360703 0
1.36968 -0.362896 0
1.33791 -0.361942 0
1.34311 -0.32122 0
1.31325 -0.323522 0
1.28325 -0.323135 0
1.46993 -0.493877 0
1.43181 -0.485093 0
1.3945 -0.471766 0
1.42911 -0.446614 0
1.39374 -0.440012 0
1.3591 -0.429783 0
1.38462 -0.403596 0
1.35229 -0.398931 0
1.32059 -0.390933 0
1.3945 -0.471766 0
1.36139 -0.455315 0
1.32995 -0.435638 0
1.3591 -0.429783 0
1.328 -0.416463 0
1.29843 -0.400358 0
1.32059 -0.390933 0
1.29169 -0.380098 0
1.2641 -0.366639 0
1.38462 -0.403596 0
1.35229 -0.398931 0
1.32059 -0.390933 0
1.33791 -0.361942 0
1.30766 -0.358079 0
1.27785 -0.351393 0
1.28325 -0.323135 0
1.25453 -0.320264 0
1.22631 -0.314972 0
1.32059 -0.390933 0
1.29169 -0.380098 0
1.2641 -0.366639 0
1.27785 -0.351393 0
1.25027 -0.342323 0
1.22377 -0.331002 0
1.22631 -0.314972 0
1.19998 -0.307584 0
1.1747 -0.298202 0
1.40267 -0.308818 0
1.37323 -0.316336 0
1.34311 -0.32122 0
1.33734 -0.27377 0
1.30941 -0.28074 0
1.28089 -0.285372 0
1.27075 -0.240066 0
1.2441 -0.246537 0
1.21688 -0.25097 0
1.34311 -0.32122 0
1.31325 -0.323522 0
1.28325 -0.323135 0
1.28089 -0.285372 0
1.25268 -0.287718 0
1.22437 -0.287713 0
1.21688 -0.25097 0
1.18993 -0.253408 0
1.16289 -0.253791 0
1.27075 -0.240066 0
1.2441 -0.246537 0
1.21688 -0.25097 0
1.20244 -0.20801 0
1.17668 -0.213835 0
1.15041 -0.217891 0
1.1313 -0.177034 0
1.10617 -0.182359 0
1.08054 -0.186166 0
1.21688 -0.25097 0
1.18993 -0.253408 0
1.16289 -0.253791 0
1.15041 -0.217891 0
1.12434 -0.220232 0
1.09819 -0.220802 0
1.08054 -0.186166 0
1.05511 -0.188504 0
1.0296 -0.189321 0
1.28325 -0.323135 0
1.25453 -0.320264 0
1.22631 -0.314972 0
1.22437 -0.287713 0
1.19719 -0.285528 0
1.17045 -0.281206 0
1.16289 -0.253791 0
1.13678 -0.252264 0
1.11108 -0.248855 0
1.22631 -0.314972 0
1.19998 -0.307584 0
1.1747 -0.298202 0
1.17045 -0.281206 0
1.14532 -0.275022 0
1.12113 -0.267059 0
1.11108 -0.248855 0
1.08675 -0.243797 0
1.06327 -0.237158 0
1.16289 -0.253791 0
1.13678 -0.252264 0
1.11108 -0.248855 0
1.09819 -0.220802 0
1.07283 -0.219737 0
1.04785 -0.217045 0
1.0296 -0.189321 0
1.00481 -0.188729 0
0.98038 -0.186732 0
1.11108 -0.248855 0
1.08675 -0.243797 0
1.06327 -0.237158 0
1.04785 -0.217045 0
1.02406 -0.212931 0
1.00107 -0.20743 0
0.98038 -0.186732 0
0.956998 -0.183492 0
0.934375 -0.17904 0
1.32995 -0.435638 0
1.30324 -0.414225 0
1.27896 -0.390611 0
1.29843 -0.400358 0
1.27295 -0.382138 0
1.24963 -0.362271 0
1.2641 -0.366639 0
1.23974 -0.351232 0
1.21722 -0.334131 0
1.27896 -0.390611 0
1.25866 -0.3665 0
1.241 -0.341607 0
1.24963 -0.362271 0
1.22977 -0.341425 0
1.21234 -0.319686 0
1.21722 -0.334131 0
1.1976 -0.315887 0
1.18007 -0.296704 0
1.2641 -0.366639 0
1.23974 -0.351232 0
1.21722 -0.334131 0
1.22377 -0.331002 0
1.19998 -0.317957 0
1.17779 -0.303344 0
1.1747 -0.298202 0
1.15174 -0.287226 0
1.13029 -0.274822 0
1.21722 -0.334131 0
1.1976 -0.315887 0
1.18007 -0.296704 0
1.17779 -0.303344 0
1.15816 -0.287683 0
1.14044 -0.271145 0
1.13029 -0.274822 0
1.11108 -0.261395 0
1.09363 -0.247085 0
1.241 -0.341607 0
1.22689 -0.316891 0
1.21561 -0.292097 0
1.21234 -0.319686 0
1.19803 -0.29762 0
1.18621 -0.275526 0
1.18007 -0.296704 0
1.16518 -0.277132 0
1.1525 -0.257373 0
1.21561 -0.292097 0
1.20675 -0.268134 0
1.2002 -0.245083 0
1.18621 -0.275526 0
1.17652 -0.253767 0
1.16915 -0.232344 0
1.1525 -0.257373 0
1.14184 -0.237799 0
1.13328 -0.218648 0
1.18007 -0.296704 0
1.16518 -0.277132 0
1.1525 -0.257373 0
1.14044 -0.271145 0
1.12518 -0.254164 0
1.11197 -0.236875 0
1.09363 -0.247085 0
1.07835 -0.232239 0
1.06494 -0.217012 0
1.1525 -0.257373 0
1.14184 -0.237799 0
1.13328 -0.218648 0
1.11197 -0.236875 0
1.10067 -0.219597 0
1.09134 -0.202471 0
1.06494 -0.217012 0
1.05323 -0.201671 0
1.04332 -0.186375 0
1.1747 -0.298202 0
1.15174 -0.287226 0
1.13029 -0.274822 0
1.12113 -0.267059 0
1.09892 -0.257668 0
1.07805 -0.246979 0
1.06327 -0.237158 0
1.04149 -0.229227 0
1.02095 -0.220118 0
1.13029 -0.274822 0
1.11108 -0.261395 0
1.09363 -0.247085 0
1.07805 -0.246979 0
1.0591 -0.235338 0
1.04174 -0.222856 0
1.02095 -0.220118 0
1.00212 -0.210119 0
0.984756 -0.199337 0
1.06327 -0.237158 0
1.04149 -0.229227 0
1.02095 -0.220118 0
1.00107 -0.20743 0
0.979578 -0.200793 0
0.959241 -0.193099 0
0.934375 -0.17904 0
0.913073 -0.173577 0
0.892861 -0.167173 0
1.02095 -0.220118 0
1.00212 -0.210119 0
0.984756 -0.199337 0
0.959241 -0.193099 0
0.940444 -0.184598 0
0.92303 -0.175372 0
0.892861 -0.167173 0
0.874034 -0.160031 0
0.856512 -0.152227 0
1.09363 -0.247085 0
1.07835 -0.232239 0
1.06494 -0.217012 0
1.04174 -0.222856 0
1.02629 -0.209855 0
1.01256 -0.196482 0
0.984756 -0.199337 0
0.969145 -0.188045 0
0.95514 -0.176369 0
1.06494 -0.217012 0
1.05323 -0.201671 0
1.04332 -0.186375 0
1.01256 -0.196482 0
1.0004 -0.182978 0
0.989924 -0.169431 0
0.95514 -0.176369 0
0.942626 -0.164505 0
0.931701 -0.152553 0
0.984756 -0.199337 0
0.969145 -0.188045 0
0.95514 -0.176369 0
0.92303 -0.175372 0
0.9072 -0.165654 0
0.892879 -0.15555 0
0.856512 -0.152227 0
0.840439 -0.143953 0
0.825801 -0.135312 0
0.95514 -0.176369 0
0.942626 -0.164505 0
0.931701 -0.152553 0
0.892879 -0.15555 0
0.879946 -0.145239 0
0.868508 -0.134815 0
0.825801 -0.135312 0
0.812485 -0.126453 0
0.80062 -0.117462 0
1.1313 -0.177034 0
1.10617 -0.182359 0
1.08054 -0.186166 0
1.05813 -0.14777 0
1.03349 -0.152539 0
1.00836 -0.156005 0
0.981955 -0.119093 0
0.957715 -0.123364 0
0.932943 -0.126536 0
1.08054 -0.186166 0
1.05511 -0.188504 0
1.0296 -0.189321 0
1.00836 -0.156005 0
0.983399 -0.15821 0
0.958355 -0.15911 0
0.932943 -0.126536 0
0.908305 -0.128649 0
0.88355 -0.129663 0
0.981955 -0.119093 0
0.957715 -0.123364 0
0.932943 -0.126536 0
0.900118 -0.0915264 0
0.876466 -0.0952016 0
0.852219 -0.0979792 0
0.805599 -0.0651036 0
0.783133 -0.068128 0
0.759925 -0.0704617 0
0.932943 -0.126536 0
0.908305 -0.128649 0
0.88355 -0.129663 0
0.852219 -0.0979792 0
0.828012 -0.0998907 0
0.803627 -0.100905 0
0.759925 -0.0704617 0
0.736637 -0.0721312 0
0.713067 -0.0731058 0
1.0296 -0.189321 0
1.00481 -0.188729 0
0.98038 -0.186732 0
0.958355 -0.15911 0
0.933925 -0.158804 0
0.909827 -0.157293 0
0.88355 -0.129663 0
0.859323 -0.129663 0
0.835391 -0.128647 0
0.98038 -0.186732 0
0.956998 -0.183492 0
0.934375 -0.17904 0
0.909827 -0.157293 0
0.886651 -0.154719 0
0.864185 -0.151103 0
0.835391 -0.128647 0
0.812281 -0.126733 0
0.789839 -0.123937 0
0.88355 -0.129663 0
0.859323 -0.129663 0
0.835391 -0.128647 0
0.803627 -0.100905 0
0.779664 -0.101093 0
0.755939 -0.100449 0
0.713067 -0.0731058 0
0.689789 -0.0734425 0
0.666664 -0.0731322 0
0.835391 -0.128647 0
0.812281 -0.126733 0
0.789839 -0.123937 0
0.755939 -0.100449 0
0.732925 -0.0990704 0
0.710524 -0.0969686 0
0.666664 -0.0731322 0
0.644127 -0.0722527 0
0.622131 -0.0708096 0
0.805599 -0.0651036 0
0.783133 -0.068128 0
0.759925 -0.0704617 0
0.686916 -0.0410619 0
0.666834 -0.0432615 0
0.645857 -0.0449818 0
0.524955 -0.0198416 0
0.5091 -0.0211382 0
0.492263 -0.0221705 0
0.759925 -0.0704617 0
0.736637 -0.0721312 0
0.713067 -0.0731058 0
0.645857 -0.0449818 0
0.624602 -0.046242 0
0.602921 -0.0470147 0
0.492263 -0.0221705 0
0.474993 -0.0229601 0
0.457203 -0.0234771 0
0.524955 -0.0198416 0
0.5091 -0.0211382 0
0.492263 -0.0221705 0
0.29967 -0.00575532 0
0.290353 -0.00616219 0
0.280269 -0.00647443 0
0 0 0
0 0 0
0 0 0
0.492263 -0.0221705 0
0.474993 -0.0229601 0
0.457203 -0.0234771 0
0.280269 -0.00647443 0
0.269812 -0.00672137 0
0.258925 -0.00686759 0
0 0 0
0 0 0
0 0 0
0.713067 -0.0731058 0
0.689789 -0.0734425 0
0.666664 -0.0731322 0
0.602921 -0.0470147 0
0.581351 -0.0473435 0
0.559812 -0.0472165 0