# vtk DataFile Version 3.0
#This file was generated by the deal.II library on 2025/1/3 at 13:53:30
ASCII
DATASET UNSTRUCTURED_GRID

POINTS 34560 double
1.1 1.1 0
1.03125 1.09531 0
0.9625 1.09063 0
1.09375 1.03125 0
1.02539 1.02686 0
0.957031 1.02246 0
1.0875 0.9625 0
1.01953 0.958398 0
0.951563 0.954297 0
0.9625 1.09063 0
0.89375 1.08594 0
0.825 1.08125 0
0.957031 1.02246 0
0.888672 1.01807 0
0.820312 1.01367 0
0.951563 0.954297 0
0.883594 0.950195 0
0.815625 0.946094 0
1.0875 0.9625 0
1.01953 0.958398 0
0.951563 0.954297 0
1.08125 0.89375 0
1.01367 0.889941 0
0.946094 0.886133 0
1.075 0.825 0
1.00781 0.821484 0
0.940625 0.817969 0
0.951563 0.954297 0
0.883594 0.950195 0
0.815625 0.946094 0
0.946094 0.886133 0
0.878516 0.882324 0
0.810938 0.878516 0
0.940625 0.817969 0
0.873438 0.814453 0
0.80625 0.810937 0
0.825 1.08125 0
0.75625 1.07656 0
0.6875 1.07187 0
0.820312 1.01367 0
0.751953 1.00928 0
0.683594 1.00488 0
0.815625 0.946094 0
0.747656 0.941992 0
0.679688 0.937891 0
0.6875 1.07187 0
0.61875 1.06719 0
0.55 1.0625 0
0.683594 1.00488 0
0.615234 1.00049 0
0.546875 0.996094 0
0.679688 0.937891 0
0.611719 0.933789 0
0.54375 0.929688 0
0.815625 0.946094 0
0.747656 0.941992 0
0.679688 0.937891 0
0.810938 0.878516 0
0.743359 0.874707 0
0.675781 0.870898 0
0.80625 0.810937 0
0.739063 0.807422 0
0.671875 0.803906 0
0.679688 0.937891 0
0.611719 0.933789 0
0.54375 0.929688 0
0.675781 0.870898 0
0.608203 0.86709 0
0.540625 0.863281 0
0.671875 0.803906 0
0.604688 0.800391 0
0.5375 0.796875 0
1.075 0.825 0
1.00781 0.821484 0
0.940625 0.817969 0
1.06875 0.75625 0
1.00195 0.753027 0
0.935156 0.749805 0
1.0625 0.6875 0
0.996094 0.68457 0
0.929688 0.681641 0
0.940625 0.817969 0
0.873438 0.814453 0
0.80625 0.810937 0
0.935156 0.749805 0
0.868359 0.746582 0
0.801563 0.743359 0
0.929688 0.681641 0
0.863281 0.678711 0
0.796875 0.675781 0
1.0625 0.6875 0
0.996094 0.68457 0
0.929688 0.681641 0
1.05625 0.61875 0
0.990234 0.616113 0
0.924219 0.613477 0
1.05 0.55 0
0.984375 0.547656 0
0.91875 0.545313 0
0.929688 0.681641 0
0.863281 0.678711 0
0.796875 0.675781 0
0.924219 0.613477 0
0.858203 0.61084 0
0.792188 0.608203 0
0.91875 0.545313 0
0.853125 0.542969 0
0.7875 0.540625 0
0.80625 0.810937 0
0.739063 0.807422 0
0.671875 0.803906 0
0.801563 0.743359 0
0.734766 0.740137 0
0.667969 0.736914 0
0.796875 0.675781 0
0.730469 0.672852 0
0.664062 0.669922 0
0.671875 0.803906 0
0.604688 0.800391 0
0.5375 0.796875 0
0.667969 0.736914 0
0.601172 0.733691 0
0.534375 0.730469 0
0.664062 0.669922 0
0.597656 0.666992 0
0.53125 0.664062 0
0.796875 0.675781 0
0.730469 0.672852 0
0.664062 0.669922 0
0.792188 0.608203 0
0.726172 0.605566 0
0.660156 0.60293 0
0.7875 0.540625 0
0.721875 0.538281 0
0.65625 0.535937 0
0.664062 0.669922 0
0.597656 0.666992 0
0.53125 0.664062 0
0.660156 0.60293 0
0.594141 0.600293 0
0.528125 0.597656 0
0.65625 0.535937 0
0.590625 0.533594 0
0.525 0.53125 0
0.55 1.0625 0
0.48125 1.05781 0
0.4125 1.05313 0
0.546875 0.996094 0
0.478516 0.991699 0
0.410156 0.987305 0
0.54375 0.929688 0
0.475781 0.925586 0
0.407813 0.921484 0
0.4125 1.05313 0
0.34375 1.04844 0
0.275 1.04375 0
0.410156 0.987305 0
0.341797 0.98291 0
0.273438 0.978516 0
0.407813 0.921484 0
0.339844 0.917383 0
0.271875 0.913281 0
0.54375 0.929688 0
0.475781 0.925586 0
0.407813 0.921484 0
0.540625 0.863281 0
0.473047 0.859473 0
0.405469 0.855664 0
0.5375 0.796875 0
0.470313 0.793359 0
0.403125 0.789844 0
0.407813 0.921484 0
0.339844 0.917383 0
0.271875 0.913281 0
0.405469 0.855664 0
0.337891 0.851855 0
0.270313 0.848047 0
0.403125 0.789844 0
0.335938 0.786328 0
0.26875 0.782813 0
0.275 1.04375 0
0.20625 1.03906 0
0.1375 1.03437 0
0.273438 0.978516 0
0.205078 0.974121 0
0.136719 0.969727 0
0.271875 0.913281 0
0.203906 0.90918 0
0.135938 0.905078 0
0.1375 1.03437 0
0.06875 1.02969 0
0 1.025 0
0.136719 0.969727 0
0.0683594 0.965332 0
0 0.960937 0
0.135938 0.905078 0
0.0679688 0.900977 0
0 0.896875 0
0.271875 0.913281 0
0.203906 0.90918 0
0.135938 0.905078 0
0.270313 0.848047 0
0.202734 0.844238 0
0.135156 0.84043 0
0.26875 0.782813 0
0.201563 0.779297 0
0.134375 0.775781 0
0.135938 0.905078 0
0.0679688 0.900977 0
0 0.896875 0
0.135156 0.84043 0
0.0675781 0.836621 0
0 0.832812 0
0.134375 0.775781 0
0.0671875 0.772266 0
0 0.76875 0
0.5375 0.796875 0
0.470313 0.793359 0
0.403125 0.789844 0
0.534375 0.730469 0
0.467578 0.727246 0
0.400781 0.724023 0
0.53125 0.664062 0
0.464844 0.661133 0
0.398438 0.658203 0
0.403125 0.789844 0
0.335938 0.786328 0
0.26875 0.782813 0
0.400781 0.724023 0
0.333984 0.720801 0
0.267188 0.717578 0
0.398438 0.658203 0
0.332031 0.655273 0
0.265625 0.652344 0
0.53125 0.664062 0
0.464844 0.661133 0
0.398438 0.658203 0
0.528125 0.597656 0
0.462109 0.59502 0
0.396094 0.592383 0
0.525 0.53125 0
0.459375 0.528906 0
0.39375 0.526563 0
0.398438 0.658203 0
0.332031 0.655273 0
0.265625 0.652344 0
0.396094 0.592383 0
0.330078 0.589746 0
0.264062 0.587109 0
0.39375 0.526563 0
0.328125 0.524219 0
0.2625 0.521875 0
0.26875 0.782813 0
0.201563 0.779297 0
0.134375 0.775781 0
0.267188 0.717578 0
0.200391 0.714355 0
0.133594 0.711133 0
0.265625 0.652344 0
0.199219 0.649414 0
0.132812 0.646484 0
0.134375 0.775781 0
0.0671875 0.772266 0
0 0.76875 0
0.133594 0.711133 0
0.0667969 0.70791 0
0 0.704687 0
0.132812 0.646484 0
0.0664062 0.643555 0
0 0.640625 0
0.265625 0.652344 0
0.199219 0.649414 0
0.132812 0.646484 0
0.264062 0.587109 0
0.198047 0.584473 0
0.132031 0.581836 0
0.2625 0.521875 0
0.196875 0.519531 0
0.13125 0.517187 0
0.132812 0.646484 0
0.0664062 0.643555 0
0 0.640625 0
0.132031 0.581836 0
0.0660156 0.579199 0
0 0.576562 0
0.13125 0.517187 0
0.065625 0.514844 0
0 0.5125 0
1.05 0.55 0
0.984375 0.547656 0
0.91875 0.545313 0
1.04375 0.48125 0
0.978516 0.479199 0
0.913281 0.477148 0
1.0375 0.4125 0
0.972656 0.410742 0
0.907813 0.408984 0
0.91875 0.545313 0
0.853125 0.542969 0
0.7875 0.540625 0
0.913281 0.477148 0
0.848047 0.475098 0
0.782813 0.473047 0
0.907813 0.408984 0
0.842969 0.407227 0
0.778125 0.405469 0
1.0375 0.4125 0
0.972656 0.410742 0
0.907813 0.408984 0
1.03125 0.34375 0
0.966797 0.342285 0
0.902344 0.34082 0
1.025 0.275 0
0.960937 0.273828 0
0.896875 0.272656 0
0.907813 0.408984 0
0.842969 0.407227 0
0.778125 0.405469 0
0.902344 0.34082 0
0.837891 0.339355 0
0.773438 0.337891 0
0.896875 0.272656 0
0.832812 0.271484 0
0.76875 0.270313 0
0.7875 0.540625 0
0.721875 0.538281 0
0.65625 0.535937 0
0.782813 0.473047 0
0.717578 0.470996 0
0.652344 0.468945 0
0.778125 0.405469 0
0.713281 0.403711 0
0.648438 0.401953 0
0.65625 0.535937 0
0.590625 0.533594 0
0.525 0.53125 0
0.652344 0.468945 0
0.587109 0.466895 0
0.521875 0.464844 0
0.648438 0.401953 0
0.583594 0.400195 0
0.51875 0.398438 0
0.778125 0.405469 0
0.713281 0.403711 0
0.648438 0.401953 0
0.773438 0.337891 0
0.708984 0.336426 0
0.644531 0.334961 0
0.76875 0.270313 0
0.704687 0.269141 0
0.640625 0.267969 0
0.648438 0.401953 0
0.583594 0.400195 0
0.51875 0.398438 0
0.644531 0.334961 0
0.580078 0.333496 0
0.515625 0.332031 0
0.640625 0.267969 0
0.576562 0.266797 0
0.5125 0.265625 0
1.025 0.275 0
0.960937 0.273828 0
0.896875 0.272656 0
1.01875 0.20625 0
0.955078 0.205371 0
0.891406 0.204492 0
1.0125 0.1375 0
0.949219 0.136914 0
0.885937 0.136328 0
0.896875 0.272656 0
0.832812 0.271484 0
0.76875 0.270313 0
0.891406 0.204492 0
0.827734 0.203613 0
0.764062 0.202734 0
0.885937 0.136328 0
0.822656 0.135742 0
0.759375 0.135156 0
1.0125 0.1375 0
0.949219 0.136914 0
0.885937 0.136328 0
1.00625 0.06875 0
0.943359 0.068457 0
0.880469 0.0681641 0
1 0 0
0.9375 0 0
0.875 0 0
0.885937 0.136328 0
0.822656 0.135742 0
0.759375 0.135156 0
0.880469 0.0681641 0
0.817578 0.0678711 0
0.754687 0.0675781 0
0.875 0 0
0.8125 0 0
0.75 0 0
0.76875 0.270313 0
0.704687 0.269141 0
0.640625 0.267969 0
0.764062 0.202734 0
0.700391 0.201855 0
0.636719 0.200977 0
0.759375 0.135156 0
0.696094 0.13457 0
0.632812 0.133984 0
0.640625 0.267969 0
0.576562 0.266797 0
0.5125 0.265625 0
0.636719 0.200977 0
0.573047 0.200098 0
0.509375 0.199219 0
0.632812 0.133984 0
0.569531 0.133398 0
0.50625 0.132812 0
0.759375 0.135156 0
0.696094 0.13457 0
0.632812 0.133984 0
0.754687 0.0675781 0
0.691797 0.0672852 0
0.628906 0.0669922 0
0.75 0 0
0.6875 0 0
0.625 0 0
0.632812 0.133984 0
0.569531 0.133398 0
0.50625 0.132812 0
0.628906 0.0669922 0
0.566016 0.0666992 0
0.503125 0.0664062 0
0.625 0 0
0.5625 0 0
0.5 0 0
0.525 0.53125 0
0.459375 0.528906 0
0.39375 0.526563 0
0.521875 0.464844 0
0.456641 0.462793 0
0.391406 0.460742 0
0.51875 0.398438 0
0.453906 0.39668 0
0.389063 0.394922 0
0.39375 0.526563 0
0.328125 0.524219 0
0.2625 0.521875 0
0.391406 0.460742 0
0.326172 0.458691 0
0.260938 0.456641 0
0.389063 0.394922 0
0.324219 0.393164 0
0.259375 0.391406 0
0.51875 0.398438 0
0.453906 0.39668 0
0.389063 0.394922 0
0.515625 0.332031 0
0.451172 0.330566 0
0.386719 0.329102 0
0.5125 0.265625 0
0.448437 0.264453 0
0.384375 0.263281 0
0.389063 0.394922 0
0.324219 0.393164 0
0.259375 0.391406 0
0.386719 0.329102 0
0.322266 0.327637 0
0.257812 0.326172 0
0.384375 0.263281 0
0.320312 0.262109 0
0.25625 0.260937 0
0.2625 0.521875 0
0.196875 0.519531 0
0.13125 0.517187 0
0.260938 0.456641 0
0.195703 0.45459 0
0.130469 0.452539 0
0.259375 0.391406 0
0.194531 0.389648 0
0.129688 0.387891 0
0.13125 0.517187 0
0.065625 0.514844 0
0 0.5125 0
0.130469 0.452539 0
0.0652344 0.450488 0
0 0.448437 0
0.129688 0.387891 0
0.0648438 0.386133 0
0 0.384375 0
0.259375 0.391406 0
0.194531 0.389648 0
0.129688 0.387891 0
0.257812 0.326172 0
0.193359 0.324707 0
0.128906 0.323242 0
0.25625 0.260937 0
0.192187 0.259766 0
0.128125 0.258594 0
0.129688 0.387891 0
0.0648438 0.386133 0
0 0.384375 0
0.128906 0.323242 0
0.0644531 0.321777 0
0 0.320312 0
0.128125 0.258594 0
0.0640625 0.257422 0
0 0.25625 0
0.5125 0.265625 0
0.448437 0.264453 0
0.384375 0.263281 0
0.509375 0.199219 0
0.445703 0.19834 0
0.382031 0.197461 0
0.50625 0.132812 0
0.442969 0.132227 0
0.379688 0.131641 0
0.384375 0.263281 0
0.320312 0.262109 0
0.25625 0.260937 0
0.382031 0.197461 0
0.318359 0.196582 0
0.254687 0.195703 0
[...]
POINT_DATA 34560
VECTORS v double
1.26632 -0.335291 0
1.24805 -0.305333 0
1.232 -0.277367 0
1.23296 -0.314158 0
1.21301 -0.287765 0
1.1955 -0.262243 0
1.1946 -0.292929 0
1.1736 -0.269229 0
1.15471 -0.246039 0
1.232 -0.277367 0
1.21783 -0.250273 0
1.20563 -0.224737 0
1.1955 -0.262243 0
1.17963 -0.237513 0
1.16604 -0.213869 0
1.15471 -0.246039 0
1.13764 -0.223477 0
1.12265 -0.201644 0
1.1946 -0.292929 0
1.1736 -0.269229 0
1.15471 -0.246039 0
1.1505 -0.269381 0
1.12848 -0.248451 0
1.10858 -0.227811 0
1.10026 -0.246456 0
1.07776 -0.228043 0
1.05721 -0.209692 0
1.15471 -0.246039 0
1.13764 -0.223477 0
1.12265 -0.201644 0
1.10858 -0.227811 0
1.09047 -0.207535 0
1.07443 -0.187776 0
1.05721 -0.209692 0
1.03846 -0.191518 0
1.02169 -0.173662 0
1.20563 -0.224737 0
1.19443 -0.200306 0
1.18488 -0.177181 0
1.16604 -0.213869 0
1.15332 -0.191085 0
1.14257 -0.169394 0
1.12265 -0.201644 0
1.10877 -0.180547 0
1.09678 -0.160282 0
1.18488 -0.177181 0
1.17581 -0.155179 0
1.16807 -0.134306 0
1.14257 -0.169394 0
1.13224 -0.148585 0
1.12352 -0.128792 0
1.09678 -0.160282 0
1.08543 -0.140788 0
1.0757 -0.122138 0
1.12265 -0.201644 0
1.10877 -0.180547 0
1.09678 -0.160282 0
1.07443 -0.187776 0
1.05959 -0.168522 0
1.04662 -0.149914 0
1.02169 -0.173662 0
1.00618 -0.156153 0
0.992507 -0.139124 0
1.09678 -0.160282 0
1.08543 -0.140788 0
1.0757 -0.122138 0
1.04662 -0.149914 0
1.03447 -0.131905 0
1.02394 -0.114586 0
0.992507 -0.139124 0
0.979773 -0.122565 0
0.968646 -0.106564 0
1.10026 -0.246456 0
1.07776 -0.228043 0
1.05721 -0.209692 0
1.04485 -0.223046 0
1.02208 -0.206988 0
1.00116 -0.190834 0
0.984949 -0.200109 0
0.962091 -0.186163 0
0.94095 -0.172018 0
1.05721 -0.209692 0
1.03846 -0.191518 0
1.02169 -0.173662 0
1.00116 -0.190834 0
0.981975 -0.174697 0
0.964676 -0.158733 0
0.94095 -0.172018 0
0.921474 -0.157794 0
0.90379 -0.143631 0
0.984949 -0.200109 0
0.962091 -0.186163 0
0.94095 -0.172018 0
0.920571 -0.176467 0
0.897689 -0.164545 0
0.876447 -0.152375 0
0.851846 -0.153501 0
0.829111 -0.143432 0
0.807908 -0.133082 0
0.94095 -0.172018 0
0.921474 -0.157794 0
0.90379 -0.143631 0
0.876447 -0.152375 0
0.856791 -0.140058 0
0.838864 -0.127721 0
0.807908 -0.133082 0
0.788216 -0.122542 0
0.770176 -0.111926 0
1.02169 -0.173662 0
1.00618 -0.156153 0
0.992507 -0.139124 0
0.964676 -0.158733 0
0.948689 -0.142985 0
0.934474 -0.127579 0
0.90379 -0.143631 0
0.887445 -0.129583 0
0.872822 -0.115768 0
0.992507 -0.139124 0
0.979773 -0.122565 0
0.968646 -0.106564 0
0.934474 -0.127579 0
0.921299 -0.112529 0
0.909715 -0.0979215 0
0.872822 -0.115768 0
0.859319 -0.102212 0
0.847389 -0.0890012 0
0.90379 -0.143631 0
0.887445 -0.129583 0
0.872822 -0.115768 0
0.838864 -0.127721 0
0.822279 -0.115412 0
0.807379 -0.103242 0
0.770176 -0.111926 0
0.753467 -0.10128 0
0.738399 -0.0907058 0
0.872822 -0.115768 0
0.859319 -0.102212 0
0.847389 -0.0890012 0
0.807379 -0.103242 0
0.793656 -0.0912433 0
0.781498 -0.0794997 0
0.738399 -0.0907058 0
0.72455 -0.080236 0
0.712254 -0.0699485 0
1.16807 -0.134306 0
1.1606 -0.114473 0
1.1542 -0.0956337 0
1.12352 -0.128792 0
1.11508 -0.109869 0
1.10793 -0.0918703 0
1.0757 -0.122138 0
1.06645 -0.104264 0
1.05854 -0.0872078 0
1.1542 -0.0956337 0
1.14796 -0.077732 0
1.14255 -0.0606908 0
1.10793 -0.0918703 0
1.101 -0.0747014 0
1.09508 -0.0583485 0
1.05854 -0.0872078 0
1.05102 -0.0709128 0
1.0446 -0.0553692 0
1.0757 -0.122138 0
1.06645 -0.104264 0
1.05854 -0.0872078 0
1.02394 -0.114586 0
1.01407 -0.0979175 0
1.00556 -0.0819582 0
0.968646 -0.106564 0
0.958302 -0.091119 0
0.949337 -0.0762836 0
1.05854 -0.0872078 0
1.05102 -0.0709128 0
1.0446 -0.0553692 0
1.00556 -0.0819582 0
0.997621 -0.0666756 0
0.990824 -0.0520677 0
0.949337 -0.0762836 0
0.941075 -0.0620548 0
0.933992 -0.048437 0
1.14255 -0.0606908 0
1.13738 -0.0444641 0
1.13288 -0.0289712 0
1.09508 -0.0583485 0
1.08949 -0.0427567 0
1.08473 -0.027873 0
1.0446 -0.0553692 0
1.03866 -0.0405419 0
1.03363 -0.0263964 0
1.13288 -0.0289712 0
1.12866 -0.0141695 0
1.125 0 0
1.08473 -0.027873 0
1.08035 -0.0136525 0
1.07666 0 0
1.03363 -0.0263964 0
1.02911 -0.0128992 0
1.02539 0 0
1.0446 -0.0553692 0
1.03866 -0.0405419 0
1.03363 -0.0263964 0
0.990824 -0.0520677 0
0.984638 -0.0381212 0
0.979431 -0.0248184 0
0.933992 -0.048437 0
0.92763 -0.0354396 0
0.922291 -0.0230477 0
1.03363 -0.0263964 0
1.02911 -0.0128992 0
1.02539 0 0
0.979431 -0.0248184 0
0.974878 -0.0121345 0
0.971191 0 0
0.922291 -0.0230477 0
0.917718 -0.0112512 0
0.914062 0 0
0.968646 -0.106564 0
0.958302 -0.091119 0
0.949337 -0.0762836 0
0.909715 -0.0979215 0
0.89902 -0.0837734 0
0.889714 -0.0701434 0
0.847389 -0.0890012 0
0.836441 -0.0761685 0
0.826887 -0.0637719 0
0.949337 -0.0762836 0
0.941075 -0.0620548 0
0.933992 -0.048437 0
0.889714 -0.0701434 0
0.881225 -0.0570486 0
0.873945 -0.0445037 0
0.826887 -0.0637719 0
0.818251 -0.0518482 0
0.810847 -0.0404171 0
0.847389 -0.0890012 0
0.836441 -0.0761685 0
0.826887 -0.0637719 0
0.781498 -0.0794997 0
0.770394 -0.068051 0
0.760696 -0.0569589 0
0.712254 -0.0699485 0
0.701077 -0.0598885 0
0.691314 -0.0501139 0
0.826887 -0.0637719 0
0.818251 -0.0518482 0
0.810847 -0.0404171 0
0.760696 -0.0569589 0
0.751997 -0.0462706 0
0.744552 -0.0360174 0
0.691314 -0.0501139 0
0.682621 -0.0406837 0
0.675203 -0.0316333 0
0.933992 -0.048437 0
0.92763 -0.0354396 0
0.922291 -0.0230477 0
0.873945 -0.0445037 0
0.867482 -0.0325313 0
0.862082 -0.0211266 0
0.810847 -0.0404171 0
0.804341 -0.0295174 0
0.798928 -0.019149 0
0.922291 -0.0230477 0
0.917718 -0.0112512 0
0.914062 0 0
0.862082 -0.0211266 0
0.857556 -0.0102939 0
0.854004 0 0
0.798928 -0.019149 0
0.79447 -0.00932654 0
0.791016 0 0
0.810847 -0.0404171 0
0.804341 -0.0295174 0
0.798928 -0.019149 0
0.744552 -0.0360174 0
0.738074 -0.0262488 0
0.732714 -0.0169757 0
0.675203 -0.0316333 0
0.668807 -0.0230245 0
0.663549 -0.0148721 0
0.798928 -0.019149 0
0.79447 -0.00932654 0
0.791016 0 0
0.732714 -0.0169757 0
0.728384 -0.00822575 0
0.725098 0 0
0.663549 -0.0148721 0
0.659371 -0.00721452 0
0.65625 0 0
0.851846 -0.153501 0
0.829111 -0.143432 0
0.807908 -0.133082 0
0.779228 -0.130217 0
0.756669 -0.121866 0
0.735567 -0.11324 0
0.702547 -0.107473 0
0.680273 -0.100727 0
0.659367 -0.0937282 0
0.807908 -0.133082 0
0.788216 -0.122542 0
0.770176 -0.111926 0
0.735567 -0.11324 0
0.715889 -0.104413 0
0.697802 -0.0954883 0
0.659367 -0.0937282 0
0.639808 -0.0865332 0
0.621774 -0.0792347 0
0.702547 -0.107473 0
0.680273 -0.100727 0
0.659367 -0.0937282 0
0.621565 -0.0844886 0
0.599657 -0.0792381 0
0.57906 -0.0737788 0
0.534334 -0.062229 0
0.513137 -0.0583913 0
0.493176 -0.0543963 0
0.659367 -0.0937282 0
0.639808 -0.0865332 0
0.621774 -0.0792347 0
0.57906 -0.0737788 0
0.559726 -0.0681508 0
0.541865 -0.0624344 0
0.493176 -0.0543963 0
0.4744 -0.0502664 0
0.45703 -0.0460725 0
0.770176 -0.111926 0
0.753467 -0.10128 0
0.738399 -0.0907058 0
0.697802 -0.0954883 0
0.68103 -0.0865029 0
0.665864 -0.0775433 0
0.621774 -0.0792347 0
0.605031 -0.071859 0
0.589857 -0.0644824 0
0.738399 -0.0907058 0
0.72455 -0.080236 0
0.712254 -0.0699485 0
0.665864 -0.0775433 0
0.651948 -0.068638 0
0.639581 -0.0598565 0
0.589857 -0.0644824 0
0.57595 -0.0571255 0
0.563587 -0.0498488 0
0.621774 -0.0792347 0
0.605031 -0.071859 0
0.589857 -0.0644824 0
0.541865 -0.0624344 0
0.52526 -0.0566455 0
0.510188 -0.050848 0
0.45703 -0.0460725 0
0.440869 -0.041819 0
0.426184 -0.0375604 0
0.589857 -0.0644824 0
0.57595 -0.0571255 0
0.563587 -0.0498488 0
0.510188 -0.050848 0
0.496388 -0.0450542 0
0.484119 -0.039313 0
0.426184 -0.0375604 0
0.41275 -0.0332997 0
0.400809 -0.0290771 0
0.534334 -0.062229 0
0.513137 -0.0583913 0
0.493176 -0.0543963 0
0.437466 -0.0405575 0
0.417605 -0.0380058 0
0.39893 -0.0353597 0
0.322826 -0.0209721 0
0.305963 -0.0196428 0
0.29015 -0.0182743 0
0.493176 -0.0543963 0
0.4744 -0.0502664 0
0.45703 -0.0460725 0
0.39893 -0.0353597 0
0.381343 -0.0326253 0
0.365096 -0.0298605 0
0.29015 -0.0182743 0
0.275279 -0.0168505 0
0.261587 -0.0154206 0
0.322826 -0.0209721 0
0.305963 -0.0196428 0
0.29015 -0.0182743 0
0.179196 -0.00614137 0
0.168423 -0.0057182 0
0.158451 -0.00529971 0
0 0 0
0 0 0
0 0 0
0.29015 -0.0182743 0
0.275279 -0.0168505 0
0.261587 -0.0154206 0
0.158451 -0.00529971 0
0.149058 -0.00485393 0
0.140523 -0.00442232 0
0 0 0
0 0 0
0 0 0
0.45703 -0.0460725 0
0.440869 -0.041819 0
0.426184 -0.0375604 0
0.365096 -0.0298605 0
0.349981 -0.02706 0
0.336267 -0.0242671 0
0.261587 -0.0154206 0
0.248878 -0.0139688 0
0.237387 -0.0125302 0
0.426184 -0.0375604 0
0.41275 -0.0332997 0
0.400809 -0.0290771 0
0.336267 -0.0242671 0
0.323733 -0.021478 0
0.312617 -0.0187235 0
0.237387 -0.0125302 0
0.226912 -0.0110935 0
0.217655 -0.00968348 0
0.261587 -0.0154206 0
0.248878 -0.0139688 0
0.237387 -0.0125302 0
0.140523 -0.00442232 0
0.132594 -0.0039773 0
0.125522 -0.00354943 0
0 0 0
0 0 0
0 0 0
0.237387 -0.0125302 0
0.226912 -0.0110935 0
0.217655 -0.00968348 0
0.125522 -0.00354943 0
0.11907 -0.00311769 0
0.113444 -0.0027049 0
0 0 0
0 0 0
0 0 0
0.712254 -0.0699485 0
0.701077 -0.0598885 0
0.691314 -0.0501139 0
0.639581 -0.0598565 0
0.628389 -0.0512399 0
0.61863 -0.0428421 0
0.563587 -0.0498488 0
0.552446 -0.0426858 0
0.542755 -0.0356841 0
0.691314 -0.0501139 0
0.682621 -0.0406837 0
0.675203 -0.0316333 0
0.61863 -0.0428421 0
0.610005 -0.0347234 0
0.602681 -0.0269266 0
0.542755 -0.0356841 0
0.534257 -0.0289014 0
0.527087 -0.0223811 0
0.563587 -0.0498488 0
0.552446 -0.0426858 0
0.542755 -0.0356841 0
0.484119 -0.039313 0
0.473108 -0.0336472 0
0.463563 -0.0280939 0
0.400809 -0.0290771 0
0.390129 -0.0249029 0
0.380903 -0.020803 0
0.542755 -0.0356841 0
0.534257 -0.0289014 0
0.527087 -0.0223811 0
0.463563 -0.0280939 0
0.45526 -0.0226991 0
0.448317 -0.0175035 0
0.380903 -0.020803 0
0.372941 -0.0168072 0
0.366349 -0.0129498 0
0.675203 -0.0316333 0
0.668807 -0.0230245 0
0.663549 -0.0148721 0
0.602681 -0.0269266 0
0.596427 -0.0195206 0
0.591333 -0.0125328 0
0.527087 -0.0223811 0
0.521032 -0.0161979 0
0.516153 -0.0103833 0
0.663549 -0.0148721 0
0.659371 -0.00721452 0
0.65625 0 0
0.591333 -0.0125328 0
0.587361 -0.00601266 0
0.584473 0 0
0.516153 -0.0103833 0
0.512419 -0.00500107 0
0.509766 0 0
0.527087 -0.0223811 0
0.521032 -0.0161979 0
0.516153 -0.0103833 0
0.448317 -0.0175035 0
0.442524 -0.0125778 0
0.437924 -0.00796873 0
0.366349 -0.0129498 0
0.360926 -0.00929026 0
0.356695 -0.00586747 0
0.516153 -0.0103833 0
0.512419 -0.00500107 0
0.509766 0 0
0.437924 -0.00796873 0
0.434483 -0.00374831 0
0.432129 0 0
0.356695 -0.00586747 0
0.353603 -0.00277972 0
0.351562 0 0
0.400809 -0.0290771 0
0.390129 -0.0249029 0
0.380903 -0.020803 0
0.312617 -0.0187235 0
0.302704 -0.0160053 0
0.294177 -0.0133366 0
0.217655 -0.00968348 0
0.20943 -0.00829356 0
0.202391 -0.00693168 0
0.380903 -0.020803 0
0.372941 -0.0168072 0
0.366349 -0.0129498 0
0.294177 -0.0133366 0
0.286869 -0.0107314 0
0.280883 -0.00821244 0
0.202391 -0.00693168 0
0.19639 -0.00559815 0
0.191524 -0.00430931 0
0.217655 -0.00968348 0
0.20943 -0.00829356 0
0.202391 -0.00693168 0
0.113444 -0.0027049 0
0.108442 -0.00229765 0
0.104222 -0.00190417 0
0 0 0
0 0 0
0 0 0
0.202391 -0.00693168 0
0.19639 -0.00559815 0
0.191524 -0.00430931 0
0.104222 -0.00190417 0
0.100621 -0.00151498 0
0.097744 -0.00114519 0
0 0 0
0 0 0
0 0 0
0.366349 -0.0129498 0
0.360926 -0.00929026 0
0.356695 -0.00586747 0
0.280883 -0.00821244 0
0.276038 -0.00581513 0
0.272352 -0.00357191 0
0.191524 -0.00430931 0
0.187655 -0.00307688 0
0.1848 -0.00190189 0
0.356695 -0.00586747 0
0.353603 -0.00277972 0
0.351562 0 0
0.272352 -0.00357191 0
0.269724 -0.00156619 0
0.268066 0 0
0.1848 -0.00190189 0
0.18283 -0.000862902 0
0.181641 0 0
0.191524 -0.00430931 0
0.187655 -0.00307688 0
0.1848 -0.00190189 0
0.097744 -0.00114519 0
0.0954768 -0.000796924 0
0.0938957 -0.000456026 0
0 0 0
0 0 0
0 0 0
0.1848 -0.00190189 0
0.18283 -0.000862902 0
0.181641 0 0
0.0938957 -0.000456026 0
0.0928375 -0.000124394 0
0.0922852 0 0
0 0 0
0 0 0
0 0 0
1.80595 -0.406809 0
1.76424 -0.438067 0
1.71912 -0.463202 0
1.73588 -0.354189 0
1.69812 -0.383454 0
1.65749 -0.407341 0
1.6601 -0.308417 0
1.62737 -0.335674 0
1.59181 -0.358399 0
1.71912 -0.463202 0
1.67362 -0.48139 0
1.62619 -0.493232 0
1.65749 -0.407341 0
1.61632 -0.425607 0
1.57346 -0.43829 0
1.59181 -0.358399 0
1.55561 -0.376422 0
1.51771 -0.389613 0
1.6601 -0.308417 0
1.62737 -0.335674 0
1.59181 -0.358399 0
1.5889 -0.270976 0
1.55984 -0.294936 0
1.52827 -0.315213 0
1.51478 -0.234314 0
1.48798 -0.256096 0
1.45888 -0.274728 0
1.59181 -0.358399 0
1.55561 -0.376422 0
1.51771 -0.389613 0
1.52827 -0.315213 0
1.4958 -0.331548 0
1.46166 -0.343889 0
1.45888 -0.274728 0
1.42898 -0.29003 0
1.39754 -0.301925 0
1.62619 -0.493232 0
1.58165 -0.498802 0
1.53684 -0.498333 0
1.57346 -0.43829 0
1.53287 -0.445534 0
1.49194 -0.447869 0
1.51771 -0.389613 0
1.48142 -0.39819 0
1.44466 -0.402297 0
1.53684 -0.498333 0
1.49644 -0.49339 0
1.45694 -0.483909 0
1.49194 -0.447869 0
1.45452 -0.44584 0
1.41783 -0.439833 0
1.44466 -0.402297 0
1.41045 -0.402425 0
1.37674 -0.398832 0
1.51771 -0.389613 0
1.48142 -0.39819 0
1.44466 -0.402297 0
1.46166 -0.343889 0
1.42848 -0.35231 0
1.39462 -0.356974 0
1.39754 -0.301925 0
1.36676 -0.310477 0
1.33535 -0.315802 0
1.44466 -0.402297 0
1.41045 -0.402425 0
1.37674 -0.398832 0
1.39462 -0.356974 0
1.36261 -0.358258 0
1.33081 -0.356313 0
1.33535 -0.315802 0
1.30536 -0.31815 0
1.27552 -0.317642 0
1.51478 -0.234314 0
1.48798 -0.256096 0
1.45888 -0.274728 0
1.4378 -0.202609 0
1.41328 -0.222414 0
1.38662 -0.239485 0
1.36131 -0.17262 0
1.33872 -0.190582 0
1.31404 -0.206218 0
1.45888 -0.274728 0
1.42898 -0.29003 0
1.39754 -0.301925 0
1.38662 -0.239485 0
1.35917 -0.253656 0
1.33026 -0.264885 0
1.31404 -0.206218 0
1.28855 -0.219355 0
1.26163 -0.229957 0
1.36131 -0.17262 0
1.33872 -0.190582 0
1.31404 -0.206218 0
1.28403 -0.145545 0
1.26297 -0.161496 0
1.23992 -0.175465 0
1.20467 -0.11983 0
1.18483 -0.133982 0
1.16303 -0.146469 0
1.31404 -0.206218 0
1.28855 -0.219355 0
1.26163 -0.229957 0
1.23992 -0.175465 0
1.21599 -0.187305 0
1.19065 -0.196991 0
1.16303 -0.146469 0
1.14037 -0.157162 0
1.11631 -0.166028 0
1.39754 -0.301925 0
1.36676 -0.310477 0
1.33535 -0.315802 0
1.33026 -0.264885 0
1.30178 -0.273206 0
1.27262 -0.278705 0
1.26163 -0.229957 0
1.23492 -0.238031 0
1.20748 -0.243643 0
1.33535 -0.315802 0
1.30536 -0.31815 0
1.27552 -0.317642 0
1.27262 -0.278705 0
1.24455 -0.28158 0
1.21651 -0.281915 0
1.20748 -0.243643 0
1.18084 -0.246939 0
1.15413 -0.247987 0
1.26163 -0.229957 0
1.23492 -0.238031 0
1.20748 -0.243643 0
1.19065 -0.196991 0
1.16534 -0.204526 0
1.13926 -0.209953 0
1.11631 -0.166028 0
1.09216 -0.173063 0
1.06722 -0.178296 0
1.20748 -0.243643 0
1.18084 -0.246939 0
1.15413 -0.247987 0
1.13926 -0.209953 0
1.11375 -0.213391 0
1.08808 -0.214879 0
1.06722 -0.178296 0
1.04268 -0.181814 0
1.01793 -0.183645 0
1.45694 -0.483909 0
1.42261 -0.471516 0
1.39023 -0.455568 0
1.41783 -0.439833 0
1.38556 -0.430551 0
1.35494 -0.418483 0
1.37674 -0.398832 0
1.34645 -0.392224 0
1.31748 -0.382843 0
1.39023 -0.455568 0
1.36222 -0.438163 0
1.33656 -0.418842 0
1.35494 -0.418483 0
1.32806 -0.40442 0
1.3033 -0.388426 0
1.31748 -0.382843 0
1.29149 -0.371315 0
1.26721 -0.357827 0
1.37674 -0.398832 0
1.34645 -0.392224 0
1.31748 -0.382843 0
1.33081 -0.356313 0
1.30174 -0.351668 0
1.27366 -0.344496 0
1.27552 -0.317642 0
1.24791 -0.314675 0
1.22118 -0.309431 0
1.31748 -0.382843 0
1.29149 -0.371315 0
1.26721 -0.357827 0
1.27366 -0.344496 0
1.2481 -0.335375 0
1.22404 -0.324415 0
1.22118 -0.309431 0
1.1966 -0.302337 0
1.17335 -0.293496 0
1.33656 -0.418842 0
1.31491 -0.398777 0
1.29606 -0.377481 0
1.3033 -0.388426 0
1.28214 -0.371144 0
1.26337 -0.352775 0
1.26721 -0.357827 0
1.24593 -0.342975 0
1.22672 -0.326911 0
1.29606 -0.377481 0
1.28003 -0.356323 0
1.26632 -0.335291 0
1.26337 -0.352775 0
1.24701 -0.333795 0
1.23296 -0.314158 0
1.22672 -0.326911 0
1.20962 -0.310129 0
1.1946 -0.292929 0
1.26721 -0.357827 0
1.24593 -0.342975 0
1.22672 -0.326911 0
1.22404 -0.324415 0
1.20274 -0.312132 0
1.18333 -0.298655 0
1.17335 -0.293496 0
1.15251 -0.283311 0
1.13336 -0.271914 0
1.22672 -0.326911 0
1.20962 -0.310129 0
1.1946 -0.292929 0
1.18333 -0.298655 0
1.16594 -0.284388 0
1.1505 -0.269381 0
1.13336 -0.271914 0
1.11595 -0.259589 0
1.10026 -0.246456 0
1.27552 -0.317642 0
1.24791 -0.314675 0
1.22118 -0.309431 0
1.21651 -0.281915 0
1.19027 -0.280043 0
1.16472 -0.276109 0
1.15413 -0.247987 0
1.12884 -0.247052 0
1.10409 -0.244258 0
1.22118 -0.309431 0
1.1966 -0.302337 0
1.17335 -0.293496 0
1.16472 -0.276109 0
1.14092 -0.270468 0
1.11825 -0.26319 0
1.10409 -0.244258 0
1.08083 -0.239892 0
1.05854 -0.234028 0
1.15413 -0.247987 0
1.12884 -0.247052 0
1.10409 -0.244258 0
1.08808 -0.214879 0
1.06357 -0.214639 0
1.03948 -0.212752 0
1.01793 -0.183645 0
0.994096 -0.183959 0
0.970587 -0.182827 0
1.10409 -0.244258 0
1.08083 -0.239892 0
1.05854 -0.234028 0
1.03948 -0.212752 0
1.01665 -0.209461 0
0.994674 -0.204819 0
0.970587 -0.182827 0
0.948136 -0.18044 0
0.926419 -0.176844 0
1.17335 -0.293496 0
1.15251 -0.283311 0
1.13336 -0.271914 0
1.11825 -0.26319 0
1.09761 -0.254639 0
1.07844 -0.244952 0
1.05854 -0.234028 0
1.03803 -0.226978 0
1.01886 -0.218859 0
1.13336 -0.271914 0
1.11595 -0.259589 0
1.10026 -0.246456 0
1.07844 -0.244952 0
1.06085 -0.234407 0
1.04485 -0.223046 0
1.01886 -0.218859 0
1.00116 -0.209885 0
0.984949 -0.200109 0
1.05854 -0.234028 0
1.03803 -0.226978 0
1.01886 -0.218859 0
0.994674 -0.204819 0
0.974248 -0.199081 0
0.955021 -0.192337 0
0.926419 -0.176844 0
0.906038 -0.172246 0
0.886738 -0.166735 0
1.01886 -0.218859 0
1.00116 -0.209885 0
0.984949 -0.200109 0
0.955021 -0.192337 0
0.937118 -0.184778 0
0.920571 -0.176467 0
0.886738 -0.166735 0
0.868653 -0.16047 0
0.851846 -0.153501 0
1.20467 -0.11983 0
1.18483 -0.133982 0
1.16303 -0.146469 0
1.12385 -0.0968604 0
1.10509 -0.109171 0
1.08443 -0.120087 0
1.04029 -0.0747717 0
1.02257 -0.0853243 0
1.00291 -0.0947391 0
1.16303 -0.146469 0
1.14037 -0.157162 0
1.11631 -0.166028 0
1.08443 -0.120087 0
1.06286 -0.129491 0
1.0399 -0.137357 0
1.00291 -0.0947391 0
0.982301 -0.10291 0
0.960269 -0.109812 0
1.04029 -0.0747717 0
1.02257 -0.0853243 0
1.00291 -0.0947391 0
0.951029 -0.0548504 0
0.93459 -0.0635407 0
0.916157 -0.0713337 0
0.849759 -0.0365295 0
0.835172 -0.0433074 0
0.818435 -0.0494302 0
1.00291 -0.0947391 0
0.982301 -0.10291 0
0.960269 -0.109812 0
0.916157 -0.0713337 0
0.896673 -0.0781366 0
0.875692 -0.0839274 0
0.818435 -0.0494302 0
0.800523 -0.0548217 0
0.780994 -0.0594529 0
1.11631 -0.166028 0
1.09216 -0.173063 0
1.06722 -0.178296 0
1.0399 -0.137357 0
1.01672 -0.143673 0
0.992715 -0.148463 0
0.960269 -0.109812 0
0.937901 -0.11543 0
0.914658 -0.119779 0
1.06722 -0.178296 0
1.04268 -0.181814 0
1.01793 -0.183645 0
0.992715 -0.148463 0
0.968948 -0.151794 0
0.944897 -0.153688 0
0.914658 -0.119779 0
0.891523 -0.122912 0
0.868038 -0.12484 0
0.960269 -0.109812 0
0.937901 -0.11543 0
0.914658 -0.119779 0
0.875692 -0.0839274 0
0.854241 -0.0886914 0
0.831835 -0.0924332 0
0.780994 -0.0594529 0
0.760841 -0.0633112 0
0.739624 -0.0663904 0
0.914658 -0.119779 0
0.891523 -0.122912 0
0.868038 -0.12484 0
0.831835 -0.0924332 0
0.809397 -0.0951948 0
0.786525 -0.096979 0
0.739624 -0.0663904 0
0.718223 -0.0687235 0
0.696289 -0.0703035 0
0.849759 -0.0365295 0
0.835172 -0.0433074 0
0.818435 -0.0494302 0
0.72515 -0.0214132 0
0.713456 -0.0261255 0
0.699494 -0.0304131 0
0.557859 -0.00909351 0
0.55005 -0.0117173 0
0.540026 -0.0141264 0
0.818435 -0.0494302 0
0.800523 -0.0548217 0
0.780994 -0.0594529 0
0.699494 -0.0304131 0
0.684171 -0.0342195 0
0.667091 -0.0375122 0
0.540026 -0.0141264 0
0.52859 -0.0162946 0
0.5154 -0.0181877 0
0.557859 -0.00909351 0
0.55005 -0.0117173 0
0.540026 -0.0141264 0
0.323901 -0.00253221 0
0.320266 -0.00334603 0
0.314957 -0.00408781 0
0 0 0
0 0 0
0 0 0
0.540026 -0.0141264 0
0.52859 -0.0162946 0
0.5154 -0.0181877 0
0.314957 -0.00408781 0
0.30867 -0.00476561 0
0.301005 -0.00534405 0
0 0 0
0 0 0
0 0 0
0.780994 -0.0594529 0
0.760841 -0.0633112 0
0.739624 -0.0663904 0
0.667091 -0.0375122 0
0.649184 -0.0402829 0
0.630072 -0.0425157 0
0.5154 -0.0181877 0
0.501254 -0.019811 0
0.485862 -0.0211365 0
0.739624 -0.0663904 0
0.718223 -0.0687235 0
0.696289 -0.0703035 0