# vtk DataFile Version 3.0
#This file was generated by the deal.II library on 2025/1/3 at 13:04:20
ASCII
DATASET UNSTRUCTURED_GRID

POINTS 34560 double
1.1 1.1 0
1.03125 1.09531 0
0.9625 1.09063 0
1.09375 1.03125 0
1.02539 1.02686 0
0.957031 1.02246 0
1.0875 0.9625 0
1.01953 0.958398 0
0.951563 0.954297 0
0.9625 1.09063 0
0.89375 1.08594 0
0.825 1.08125 0
0.957031 1.02246 0
0.888672 1.01807 0
0.820312 1.01367 0
0.951563 0.954297 0
0.883594 0.950195 0
0.815625 0.946094 0
1.0875 0.9625 0
1.01953 0.958398 0
0.951563 0.954297 0
1.08125 0.89375 0
1.01367 0.889941 0
0.946094 0.886133 0
1.075 0.825 0
1.00781 0.821484 0
0.940625 0.817969 0
0.951563 0.954297 0
0.883594 0.950195 0
0.815625 0.946094 0
0.946094 0.886133 0
0.878516 0.882324 0
0.810938 0.878516 0
0.940625 0.817969 0
0.873438 0.814453 0
0.80625 0.810937 0
0.825 1.08125 0
0.75625 1.07656 0
0.6875 1.07187 0
0.820312 1.01367 0
0.751953 1.00928 0
0.683594 1.00488 0
0.815625 0.946094 0
0.747656 0.941992 0
0.679688 0.937891 0
0.6875 1.07187 0
0.61875 1.06719 0
0.55 1.0625 0
0.683594 1.00488 0
0.615234 1.00049 0
0.546875 0.996094 0
0.679688 0.937891 0
0.611719 0.933789 0
0.54375 0.929688 0
0.815625 0.946094 0
0.747656 0.941992 0
0.679688 0.937891 0
0.810938 0.878516 0
0.743359 0.874707 0
0.675781 0.870898 0
0.80625 0.810937 0
0.739063 0.807422 0
0.671875 0.803906 0
0.679688 0.937891 0
0.611719 0.933789 0
0.54375 0.929688 0
0.675781 0.870898 0
0.608203 0.86709 0
0.540625 0.863281 0
0.671875 0.803906 0
0.604688 0.800391 0
0.5375 0.796875 0
1.075 0.825 0
1.00781 0.821484 0
0.940625 0.817969 0
1.06875 0.75625 0
1.00195 0.753027 0
0.935156 0.749805 0
1.0625 0.6875 0
0.996094 0.68457 0
0.929688 0.681641 0
0.940625 0.817969 0
0.873438 0.814453 0
0.80625 0.810937 0
0.935156 0.749805 0
0.868359 0.746582 0
0.801563 0.743359 0
0.929688 0.681641 0
0.863281 0.678711 0
0.796875 0.675781 0
1.0625 0.6875 0
0.996094 0.68457 0
0.929688 0.681641 0
1.05625 0.61875 0
0.990234 0.616113 0
0.924219 0.613477 0
1.05 0.55 0
0.984375 0.547656 0
0.91875 0.545313 0
0.929688 0.681641 0
0.863281 0.678711 0
0.796875 0.675781 0
0.924219 0.613477 0
0.858203 0.61084 0
0.792188 0.608203 0
0.91875 0.545313 0
0.853125 0.542969 0
0.7875 0.540625 0
0.80625 0.810937 0
0.739063 0.807422 0
0.671875 0.803906 0
0.801563 0.743359 0
0.734766 0.740137 0
0.667969 0.736914 0
0.796875 0.675781 0
0.730469 0.672852 0
0.664062 0.669922 0
0.671875 0.803906 0
0.604688 0.800391 0
0.5375 0.796875 0
0.667969 0.736914 0
0.601172 0.733691 0
0.534375 0.730469 0
0.664062 0.669922 0
0.597656 0.666992 0
0.53125 0.664062 0
0.796875 0.675781 0
0.730469 0.672852 0
0.664062 0.669922 0
0.792188 0.608203 0
0.726172 0.605566 0
0.660156 0.60293 0
0.7875 0.540625 0
0.721875 0.538281 0
0.65625 0.535937 0
0.664062 0.669922 0
0.597656 0.666992 0
0.53125 0.664062 0
0.660156 0.60293 0
0.594141 0.600293 0
0.528125 0.597656 0
0.65625 0.535937 0
0.590625 0.533594 0
0.525 0.53125 0
0.55 1.0625 0
0.48125 1.05781 0
0.4125 1.05313 0
0.546875 0.996094 0
0.478516 0.991699 0
0.410156 0.987305 0
0.54375 0.929688 0
0.475781 0.925586 0
0.407813 0.921484 0
0.4125 1.05313 0
0.34375 1.04844 0
0.275 1.04375 0
0.410156 0.987305 0
0.341797 0.98291 0
0.273438 0.978516 0
0.407813 0.921484 0
0.339844 0.917383 0
0.271875 0.913281 0
0.54375 0.929688 0
0.475781 0.925586 0
0.407813 0.921484 0
0.540625 0.863281 0
0.473047 0.859473 0
0.405469 0.855664 0
0.5375 0.796875 0
0.470313 0.793359 0
0.403125 0.789844 0
0.407813 0.921484 0
0.339844 0.917383 0
0.271875 0.913281 0
0.405469 0.855664 0
0.337891 0.851855 0
0.270313 0.848047 0
0.403125 0.789844 0
0.335938 0.786328 0
0.26875 0.782813 0
0.275 1.04375 0
0.20625 1.03906 0
0.1375 1.03437 0
0.273438 0.978516 0
0.205078 0.974121 0
0.136719 0.969727 0
0.271875 0.913281 0
0.203906 0.90918 0
0.135938 0.905078 0
0.1375 1.03437 0
0.06875 1.02969 0
0 1.025 0
0.136719 0.969727 0
0.0683594 0.965332 0
0 0.960937 0
0.135938 0.905078 0
0.0679688 0.900977 0
0 0.896875 0
0.271875 0.913281 0
0.203906 0.90918 0
0.135938 0.905078 0
0.270313 0.848047 0
0.202734 0.844238 0
0.135156 0.84043 0
0.26875 0.782813 0
0.201563 0.779297 0
0.134375 0.775781 0
0.135938 0.905078 0
0.0679688 0.900977 0
0 0.896875 0
0.135156 0.84043 0
0.0675781 0.836621 0
0 0.832812 0
0.134375 0.775781 0
0.0671875 0.772266 0
0 0.76875 0
0.5375 0.796875 0
0.470313 0.793359 0
0.403125 0.789844 0
0.534375 0.730469 0
0.467578 0.727246 0
0.400781 0.724023 0
0.53125 0.664062 0
0.464844 0.661133 0
0.398438 0.658203 0
0.403125 0.789844 0
0.335938 0.786328 0
0.26875 0.782813 0
0.400781 0.724023 0
0.333984 0.720801 0
0.267188 0.717578 0
0.398438 0.658203 0
0.332031 0.655273 0
0.265625 0.652344 0
0.53125 0.664062 0
0.464844 0.661133 0
0.398438 0.658203 0
0.528125 0.597656 0
0.462109 0.59502 0
0.396094 0.592383 0
0.525 0.53125 0
0.459375 0.528906 0
0.39375 0.526563 0
0.398438 0.658203 0
0.332031 0.655273 0
0.265625 0.652344 0
0.396094 0.592383 0
0.330078 0.589746 0
0.264062 0.587109 0
0.39375 0.526563 0
0.328125 0.524219 0
0.2625 0.521875 0
0.26875 0.782813 0
0.201563 0.779297 0
0.134375 0.775781 0
0.267188 0.717578 0
0.200391 0.714355 0
0.133594 0.711133 0
0.265625 0.652344 0
0.199219 0.649414 0
0.132812 0.646484 0
0.134375 0.775781 0
0.0671875 0.772266 0
0 0.76875 0
0.133594 0.711133 0
0.0667969 0.70791 0
0 0.704687 0
0.132812 0.646484 0
0.0664062 0.643555 0
0 0.640625 0
0.265625 0.652344 0
0.199219 0.649414 0
0.132812 0.646484 0
0.264062 0.587109 0
0.198047 0.584473 0
0.132031 0.581836 0
0.2625 0.521875 0
0.196875 0.519531 0
0.13125 0.517187 0
0.132812 0.646484 0
0.0664062 0.643555 0
0 0.640625 0
0.132031 0.581836 0
0.0660156 0.579199 0
0 0.576562 0
0.13125 0.517187 0
0.065625 0.514844 0
0 0.5125 0
1.05 0.55 0
0.984375 0.547656 0
0.91875 0.545313 0
1.04375 0.48125 0
0.978516 0.479199 0
0.913281 0.477148 0
1.0375 0.4125 0
0.972656 0.410742 0
0.907813 0.408984 0
0.91875 0.545313 0
0.853125 0.542969 0
0.7875 0.540625 0
0.913281 0.477148 0
0.848047 0.475098 0
0.782813 0.473047 0
0.907813 0.408984 0
0.842969 0.407227 0
0.778125 0.405469 0
1.0375 0.4125 0
0.972656 0.410742 0
0.907813 0.408984 0
1.03125 0.34375 0
0.966797 0.342285 0
0.902344 0.34082 0
1.025 0.275 0
0.960937 0.273828 0
0.896875 0.272656 0
0.907813 0.408984 0
0.842969 0.407227 0
0.778125 0.405469 0
0.902344 0.34082 0
0.837891 0.339355 0
0.773438 0.337891 0
0.896875 0.272656 0
0.832812 0.271484 0
0.76875 0.270313 0
0.7875 0.540625 0
0.721875 0.538281 0
0.65625 0.535937 0
0.782813 0.473047 0
0.717578 0.470996 0
0.652344 0.468945 0
0.778125 0.405469 0
0.713281 0.403711 0
0.648438 0.401953 0
0.65625 0.535937 0
0.590625 0.533594 0
0.525 0.53125 0
0.652344 0.468945 0
0.587109 0.466895 0
0.521875 0.464844 0
0.648438 0.401953 0
0.583594 0.400195 0
0.51875 0.398438 0
0.778125 0.405469 0
0.713281 0.403711 0
0.648438 0.401953 0
0.773438 0.337891 0
0.708984 0.336426 0
0.644531 0.334961 0
0.76875 0.270313 0
0.704687 0.269141 0
0.640625 0.267969 0
0.648438 0.401953 0
0.583594 0.400195 0
0.51875 0.398438 0
0.644531 0.334961 0
0.580078 0.333496 0
0.515625 0.332031 0
0.640625 0.267969 0
0.576562 0.266797 0
0.5125 0.265625 0
1.025 0.275 0
0.960937 0.273828 0
0.896875 0.272656 0
1.01875 0.20625 0
0.955078 0.205371 0
0.891406 0.204492 0
1.0125 0.1375 0
0.949219 0.136914 0
0.885937 0.136328 0
0.896875 0.272656 0
0.832812 0.271484 0
0.76875 0.270313 0
0.891406 0.204492 0
0.827734 0.203613 0
0.764062 0.202734 0
0.885937 0.136328 0
0.822656 0.135742 0
0.759375 0.135156 0
1.0125 0.1375 0
0.949219 0.136914 0
0.885937 0.136328 0
1.00625 0.06875 0
0.943359 0.068457 0
0.880469 0.0681641 0
1 0 0
0.9375 0 0
0.875 0 0
0.885937 0.136328 0
0.822656 0.135742 0
0.759375 0.135156 0
0.880469 0.0681641 0
0.817578 0.0678711 0
0.754687 0.0675781 0
0.875 0 0
0.8125 0 0
0.75 0 0
0.76875 0.270313 0
0.704687 0.269141 0
0.640625 0.267969 0
0.764062 0.202734 0
0.700391 0.201855 0
0.636719 0.200977 0
0.759375 0.135156 0
0.696094 0.13457 0
0.632812 0.133984 0
0.640625 0.267969 0
0.576562 0.266797 0
0.5125 0.265625 0
0.636719 0.200977 0
0.573047 0.200098 0
0.509375 0.199219 0
0.632812 0.133984 0
0.569531 0.133398 0
0.50625 0.132812 0
0.759375 0.135156 0
0.696094 0.13457 0
0.632812 0.133984 0
0.754687 0.0675781 0
0.691797 0.0672852 0
0.628906 0.0669922 0
0.75 0 0
0.6875 0 0
0.625 0 0
0.632812 0.133984 0
0.569531 0.133398 0
0.50625 0.132812 0
0.628906 0.0669922 0
0.566016 0.0666992 0
0.503125 0.0664062 0
0.625 0 0
0.5625 0 0
0.5 0 0
0.525 0.53125 0
0.459375 0.528906 0
0.39375 0.526563 0
0.521875 0.464844 0
0.456641 0.462793 0
0.391406 0.460742 0
0.51875 0.398438 0
0.453906 0.39668 0
0.389063 0.394922 0
0.39375 0.526563 0
0.328125 0.524219 0
0.2625 0.521875 0
0.391406 0.460742 0
0.326172 0.458691 0
0.260938 0.456641 0
0.389063 0.394922 0
0.324219 0.393164 0
0.259375 0.391406 0
0.51875 0.398438 0
0.453906 0.39668 0
0.389063 0.394922 0
0.515625 0.332031 0
0.451172 0.330566 0
0.386719 0.329102 0
0.5125 0.265625 0
0.448437 0.264453 0
0.384375 0.263281 0
0.389063 0.394922 0
0.324219 0.393164 0
0.259375 0.391406 0
0.386719 0.329102 0
0.322266 0.327637 0
0.257812 0.326172 0
0.384375 0.263281 0
0.320312 0.262109 0
0.25625 0.260937 0
0.2625 0.521875 0
0.196875 0.519531 0
0.13125 0.517187 0
0.260938 0.456641 0
0.195703 0.45459 0
0.130469 0.452539 0
0.259375 0.391406 0
0.194531 0.389648 0
0.129688 0.387891 0
0.13125 0.517187 0
0.065625 0.514844 0
0 0.5125 0
0.130469 0.452539 0
0.0652344 0.450488 0
0 0.448437 0
0.129688 0.387891 0
0.0648438 0.386133 0
0 0.384375 0
0.259375 0.391406 0
0.194531 0.389648 0
0.129688 0.387891 0
0.257812 0.326172 0
0.193359 0.324707 0
0.128906 0.323242 0
0.25625 0.260937 0
0.192187 0.259766 0
0.128125 0.258594 0
0.129688 0.387891 0
0.0648438 0.386133 0
0 0.384375 0
0.128906 0.323242 0
0.0644531 0.321777 0
0 0.320312 0
0.128125 0.258594 0
0.0640625 0.257422 0
0 0.25625 0
0.5125 0.265625 0
0.448437 0.264453 0
0.384375 0.263281 0
0.509375 0.199219 0
0.445703 0.19834 0
0.382031 0.197461 0
0.50625 0.132812 0
0.442969 0.132227 0
0.379688 0.131641 0
0.384375 0.263281 0
0.320312 0.262109 0
0.25625 0.260937 0
0.382031 0.197461 0
0.318359 0.196582 0
0.254687 0.195703 0
[...]
POINT_DATA 34560
VECTORS v double
1.2615 -0.331273 0
1.24406 -0.301821 0
1.22871 -0.274464 0
1.22886 -0.310975 0
1.20961 -0.285008 0
1.19273 -0.259985 0
1.19126 -0.290442 0
1.17086 -0.267077 0
1.15248 -0.244301 0
1.22871 -0.274464 0
1.21516 -0.247977 0
1.20347 -0.22307 0
1.19273 -0.259985 0
1.17738 -0.235777 0
1.16424 -0.212675 0
1.15248 -0.244301 0
1.13585 -0.222186 0
1.12122 -0.200825 0
1.19126 -0.290442 0
1.17086 -0.267077 0
1.15248 -0.244301 0
1.1479 -0.267457 0
1.12637 -0.246794 0
1.10688 -0.226502 0
1.09837 -0.244986 0
1.07625 -0.226783 0
1.05602 -0.208721 0
1.15248 -0.244301 0
1.13585 -0.222186 0
1.12122 -0.200825 0
1.10688 -0.226502 0
1.08912 -0.206612 0
1.07336 -0.187267 0
1.05602 -0.208721 0
1.03754 -0.190878 0
1.02098 -0.173386 0
1.20347 -0.22307 0
1.19272 -0.199226 0
1.18355 -0.176653 0
1.16424 -0.212675 0
1.1519 -0.190405 0
1.14147 -0.169199 0
1.12122 -0.200825 0
1.10765 -0.180181 0
1.09591 -0.160345 0
1.18355 -0.176653 0
1.17479 -0.155126 0
1.1673 -0.134656 0
1.14147 -0.169199 0
1.1314 -0.148807 0
1.12289 -0.129366 0
1.09591 -0.160345 0
1.08477 -0.141222 0
1.07521 -0.122881 0
1.12122 -0.200825 0
1.10765 -0.180181 0
1.09591 -0.160345 0
1.07336 -0.187267 0
1.05876 -0.168414 0
1.04599 -0.150192 0
1.02098 -0.173386 0
1.00566 -0.156235 0
0.99212 -0.139553 0
1.09591 -0.160345 0
1.08477 -0.141222 0
1.07521 -0.122881 0
1.04599 -0.150192 0
1.034 -0.132513 0
1.02359 -0.11547 0
0.99212 -0.139553 0
0.97949 -0.123292 0
0.968446 -0.107541 0
1.09837 -0.244986 0
1.07625 -0.226783 0
1.05602 -0.208721 0
1.04363 -0.221931 0
1.02115 -0.206035 0
1.00047 -0.190122 0
0.984346 -0.199259 0
0.961701 -0.185436 0
0.940729 -0.17149 0
1.05602 -0.208721 0
1.03754 -0.190878 0
1.02098 -0.173386 0
1.00047 -0.190122 0
0.98148 -0.17427 0
0.964329 -0.158628 0
0.940729 -0.17149 0
0.921381 -0.157512 0
0.903785 -0.143634 0
0.984346 -0.199259 0
0.961701 -0.185436 0
0.940729 -0.17149 0
0.920502 -0.175801 0
0.89777 -0.163973 0
0.876639 -0.15197 0
0.852228 -0.152968 0
0.829596 -0.142967 0
0.808461 -0.132754 0
0.940729 -0.17149 0
0.921381 -0.157512 0
0.903785 -0.143634 0
0.876639 -0.15197 0
0.85706 -0.139866 0
0.839174 -0.127782 0
0.808461 -0.132754 0
0.788808 -0.122396 0
0.770773 -0.112002 0
1.02098 -0.173386 0
1.00566 -0.156235 0
0.99212 -0.139553 0
0.964329 -0.158628 0
0.948456 -0.143201 0
0.934325 -0.128112 0
0.903785 -0.143634 0
0.887501 -0.129875 0
0.872911 -0.116349 0
0.99212 -0.139553 0
0.97949 -0.123292 0
0.968446 -0.107541 0
0.934325 -0.128112 0
0.921206 -0.113334 0
0.909661 -0.0989558 0
0.872911 -0.116349 0
0.859416 -0.103046 0
0.847485 -0.0900485 0
0.903785 -0.143634 0
0.887501 -0.129875 0
0.872911 -0.116349 0
0.839174 -0.127782 0
0.822605 -0.115734 0
0.807696 -0.10383 0
0.770773 -0.112002 0
0.754046 -0.101592 0
0.738936 -0.09126 0
0.872911 -0.116349 0
0.859416 -0.103046 0
0.847485 -0.0900485 0
0.807696 -0.10383 0
0.793941 -0.0920671 0
0.781743 -0.0805255 0
0.738936 -0.09126 0
0.725022 -0.0810104 0
0.712653 -0.070915 0
1.1673 -0.134656 0
1.16005 -0.115129 0
1.15382 -0.0964995 0
1.12289 -0.129366 0
1.11463 -0.110702 0
1.10762 -0.0928757 0
1.07521 -0.122881 0
1.0661 -0.105231 0
1.05831 -0.0883147 0
1.15382 -0.0964995 0
1.14771 -0.0787037 0
1.1424 -0.0616667 0
1.10762 -0.0928757 0
1.1008 -0.0757777 0
1.09496 -0.0593999 0
1.05831 -0.0883147 0
1.05087 -0.0720629 0
1.04452 -0.0564704 0
1.07521 -0.122881 0
1.0661 -0.105231 0
1.05831 -0.0883147 0
1.02359 -0.11547 0
1.01382 -0.0989954 0
1.0054 -0.0831506 0
0.968446 -0.107541 0
0.958166 -0.0922657 0
0.949258 -0.0775256 0
1.05831 -0.0883147 0
1.05087 -0.0720629 0
1.04452 -0.0564704 0
1.0054 -0.0831506 0
0.997518 -0.0678887 0
0.990768 -0.0532128 0
0.949258 -0.0775256 0
0.941024 -0.0633009 0
0.933968 -0.0496011 0
1.1424 -0.0616667 0
1.1373 -0.0453418 0
1.13285 -0.0296498 0
1.09496 -0.0593999 0
1.08943 -0.0436847 0
1.08471 -0.028582 0
1.04452 -0.0564704 0
1.03861 -0.0414995 0
1.03362 -0.0271195 0
1.13285 -0.0296498 0
1.12865 -0.0145551 0
1.125 0 0
1.08471 -0.028582 0
1.08034 -0.0140522 0
1.07666 0 0
1.03362 -0.0271195 0
1.02911 -0.0133023 0
1.02539 0 0
1.04452 -0.0564704 0
1.03861 -0.0414995 0
1.03362 -0.0271195 0
0.990768 -0.0532128 0
0.984608 -0.0391067 0
0.97943 -0.0255572 0
0.933968 -0.0496011 0
0.927618 -0.0364329 0
0.922298 -0.0237865 0
1.03362 -0.0271195 0
1.02911 -0.0133023 0
1.02539 0 0
0.97943 -0.0255572 0
0.974874 -0.0125449 0
0.971191 0 0
0.922298 -0.0237865 0
0.917716 -0.0116582 0
0.914062 0 0
0.968446 -0.107541 0
0.958166 -0.0922657 0
0.949258 -0.0775256 0
0.909661 -0.0989558 0
0.898993 -0.0849621 0
0.889712 -0.0714147 0
0.847485 -0.0900485 0
0.836526 -0.0773595 0
0.826966 -0.0650381 0
0.949258 -0.0775256 0
0.941024 -0.0633009 0
0.933968 -0.0496011 0
0.889712 -0.0714147 0
0.881226 -0.0583135 0
0.873954 -0.045678 0
0.826966 -0.0650381 0
0.818307 -0.0531029 0
0.810891 -0.0415778 0
0.847485 -0.0900485 0
0.836526 -0.0773595 0
0.826966 -0.0650381 0
0.781743 -0.0805255 0
0.770593 -0.0692149 0
0.760858 -0.0581962 0
0.712653 -0.070915 0
0.701396 -0.0609895 0
0.691565 -0.05129 0
0.826966 -0.0650381 0
0.818307 -0.0531029 0
0.810891 -0.0415778 0
0.760858 -0.0581962 0
0.752109 -0.0474973 0
0.744632 -0.0371525 0
0.691565 -0.05129 0
0.682795 -0.0418542 0
0.675323 -0.0327191 0
0.933968 -0.0496011 0
0.927618 -0.0364329 0
0.922298 -0.0237865 0
0.873954 -0.045678 0
0.867488 -0.0335283 0
0.862097 -0.0218654 0
0.810891 -0.0415778 0
0.804366 -0.0304991 0
0.798953 -0.019873 0
0.922298 -0.0237865 0
0.917716 -0.0116582 0
0.914062 0 0
0.862097 -0.0218654 0
0.857556 -0.0107002 0
0.854004 0 0
0.798953 -0.019873 0
0.794471 -0.00972243 0
0.791016 0 0
0.810891 -0.0415778 0
0.804366 -0.0304991 0
0.798953 -0.019873 0
0.744632 -0.0371525 0
0.738118 -0.0272081 0
0.732747 -0.0176825 0
0.675323 -0.0327191 0
0.668873 -0.0239428 0
0.663592 -0.0155479 0
0.798953 -0.019873 0
0.794471 -0.00972243 0
0.791016 0 0
0.732747 -0.0176825 0
0.728387 -0.00861222 0
0.725098 0 0
0.663592 -0.0155479 0
0.659377 -0.0075828 0
0.65625 0 0
0.852228 -0.152968 0
0.829596 -0.142967 0
0.808461 -0.132754 0
0.779943 -0.12977 0
0.757457 -0.121469 0
0.736398 -0.112957 0
0.703467 -0.107097 0
0.681255 -0.100387 0
0.660385 -0.0934778 0
0.808461 -0.132754 0
0.788808 -0.122396 0
0.770773 -0.112002 0
0.736398 -0.112957 0
0.716738 -0.104285 0
0.698637 -0.0955545 0
0.660385 -0.0934778 0
0.64084 -0.0864118 0
0.62279 -0.0792779 0
0.703467 -0.107097 0
0.681255 -0.100387 0
0.660385 -0.0934778 0
0.622539 -0.0841816 0
0.600702 -0.0789562 0
0.580152 -0.0735691 0
0.535284 -0.0620099 0
0.514177 -0.0581893 0
0.494286 -0.054248 0
0.660385 -0.0934778 0
0.64084 -0.0864118 0
0.62279 -0.0792779 0
0.580152 -0.0735691 0
0.560849 -0.0680463 0
0.542987 -0.0624656 0
0.494286 -0.054248 0
0.475565 -0.0501982 0
0.458219 -0.0461087 0
0.770773 -0.112002 0
0.754046 -0.101592 0
0.738936 -0.09126 0
0.698637 -0.0955545 0
0.681827 -0.0867774 0
0.666599 -0.0780372 0
0.62279 -0.0792779 0
0.606006 -0.0720824 0
0.590762 -0.0648987 0
0.738936 -0.09126 0
0.725022 -0.0810104 0
0.712653 -0.070915 0
0.666599 -0.0780372 0
0.652595 -0.0693348 0
0.64013 -0.0607343 0
0.590762 -0.0648987 0
0.57676 -0.0577241 0
0.564283 -0.0506136 0
0.62279 -0.0792779 0
0.606006 -0.0720824 0
0.590762 -0.0648987 0
0.542987 -0.0624656 0
0.526356 -0.0568265 0
0.511225 -0.0511913 0
0.458219 -0.0461087 0
0.442054 -0.0419712 0
0.427331 -0.0378391 0
0.590762 -0.0648987 0
0.57676 -0.0577241 0
0.564283 -0.0506136 0
0.511225 -0.0511913 0
0.497335 -0.0455527 0
0.484953 -0.0399556 0
0.427331 -0.0378391 0
0.413821 -0.0337005 0
0.401774 -0.0295924 0
0.535284 -0.0620099 0
0.514177 -0.0581893 0
0.494286 -0.054248 0
0.438466 -0.0404371 0
0.418707 -0.0379004 0
0.400118 -0.0352944 0
0.32412 -0.0209529 0
0.307337 -0.0196319 0
0.291585 -0.0182849 0
0.494286 -0.054248 0
0.475565 -0.0501982 0
0.458219 -0.0461087 0
0.400118 -0.0352944 0
0.382602 -0.0326173 0
0.366395 -0.0299262 0
0.291585 -0.0182849 0
0.27676 -0.0168918 0
0.263084 -0.0155012 0
0.32412 -0.0209529 0
0.307337 -0.0196319 0
0.291585 -0.0182849 0
0.180803 -0.00614885 0
0.170029 -0.00572923 0
0.160037 -0.00531871 0
0 0 0
0 0 0
0 0 0
0.291585 -0.0182849 0
0.27676 -0.0168918 0
0.263084 -0.0155012 0
0.160037 -0.00531871 0
0.150615 -0.00488364 0
0.142027 -0.00446556 0
0 0 0
0 0 0
0 0 0
0.458219 -0.0461087 0
0.442054 -0.0419712 0
0.427331 -0.0378391 0
0.366395 -0.0299262 0
0.35129 -0.0272062 0
0.337547 -0.0245006 0
0.263084 -0.0155012 0
0.250361 -0.0140913 0
0.238819 -0.0126979 0
0.427331 -0.0378391 0
0.413821 -0.0337005 0
0.401774 -0.0295924 0
0.337547 -0.0245006 0
0.324945 -0.0217944 0
0.313724 -0.0191175 0
0.238819 -0.0126979 0
0.228256 -0.0113033 0
0.218877 -0.00993254 0
0.263084 -0.0155012 0
0.250361 -0.0140913 0
0.238819 -0.0126979 0
0.142027 -0.00446556 0
0.134026 -0.00403357 0
0.126858 -0.00361983 0
0 0 0
0 0 0
0 0 0
0.238819 -0.0126979 0
0.228256 -0.0113033 0
0.218877 -0.00993254 0
0.126858 -0.00361983 0
0.120285 -0.00319983 0
0.11452 -0.00279815 0
0 0 0
0 0 0
0 0 0
0.712653 -0.070915 0
0.701396 -0.0609895 0
0.691565 -0.05129 0
0.64013 -0.0607343 0
0.628832 -0.0522491 0
0.618976 -0.04393 0
0.564283 -0.0506136 0
0.553016 -0.0435761 0
0.543204 -0.0366551 0
0.691565 -0.05129 0
0.682795 -0.0418542 0
0.675323 -0.0327191 0
0.618976 -0.04393 0
0.610247 -0.0358147 0
0.602845 -0.0279455 0
0.543204 -0.0366551 0
0.534577 -0.0298855 0
0.527304 -0.0233082 0
0.564283 -0.0506136 0
0.553016 -0.0435761 0
0.543204 -0.0366551 0
0.484953 -0.0399556 0
0.473806 -0.0344019 0
0.464122 -0.0289251 0
0.401774 -0.0295924 0
0.390957 -0.0255094 0
0.381581 -0.0214748 0
0.543204 -0.0366551 0
0.534577 -0.0298855 0
0.527304 -0.0233082 0
0.464122 -0.0289251 0
0.455669 -0.0235504 0
0.448595 -0.0183136 0
0.381581 -0.0214748 0
0.373449 -0.0175007 0
0.366701 -0.0136163 0
0.675323 -0.0327191 0
0.668873 -0.0239428 0
0.663592 -0.0155479 0
0.602845 -0.0279455 0
0.596518 -0.020386 0
0.591386 -0.0131709 0
0.527304 -0.0233082 0
0.521153 -0.0169901 0
0.516219 -0.0109695 0
0.663592 -0.0155479 0
0.659377 -0.0075828 0
0.65625 0 0
0.591386 -0.0131709 0
0.58737 -0.00636098 0
0.584473 0 0
0.516219 -0.0109695 0
0.512432 -0.00532139 0
0.509766 0 0
0.527304 -0.0233082 0
0.521153 -0.0169901 0
0.516219 -0.0109695 0
0.448595 -0.0183136 0
0.442683 -0.0132759 0
0.438007 -0.0084888 0
0.366701 -0.0136163 0
0.361132 -0.00987002 0
0.3568 -0.0063032 0
0.516219 -0.0109695 0
0.512432 -0.00532139 0
0.509766 0 0
0.438007 -0.0084888 0
0.4345 -0.0040337 0
0.432129 0 0
0.3568 -0.0063032 0
0.353626 -0.0030207 0
0.351562 0 0
0.401774 -0.0295924 0
0.390957 -0.0255094 0
0.381581 -0.0214748 0
0.313724 -0.0191175 0
0.303669 -0.0164602 0
0.294981 -0.0138352 0
0.218877 -0.00993254 0
0.210495 -0.00857249 0
0.203279 -0.00723179 0
0.381581 -0.0214748 0
0.373449 -0.0175007 0
0.366701 -0.0136163 0
0.294981 -0.0138352 0
0.287485 -0.0112441 0
0.281319 -0.00870543 0
0.203279 -0.00723179 0
0.197076 -0.00590398 0
0.192015 -0.00460352 0
0.218877 -0.00993254 0
0.210495 -0.00857249 0
0.203279 -0.00723179 0
0.11452 -0.00279815 0
0.109357 -0.00239797 0
0.104973 -0.00200923 0
0 0 0
0 0 0
0 0 0
0.203279 -0.00723179 0
0.197076 -0.00590398 0
0.192015 -0.00460352 0
0.104973 -0.00200923 0
0.101192 -0.00161891 0
0.0981489 -0.00124322 0
0 0 0
0 0 0
0 0 0
0.366701 -0.0136163 0
0.361132 -0.00987002 0
0.3568 -0.0063032 0
0.281319 -0.00870543 0
0.276299 -0.00624523 0
0.272484 -0.00389647 0
0.192015 -0.00460352 0
0.187955 -0.00333632 0
0.184953 -0.002101 0
0.3568 -0.0063032 0
0.353626 -0.0030207 0
0.351562 0 0
0.272484 -0.00389647 0
0.269756 -0.0017452 0
0.268066 0 0
0.184953 -0.002101 0
0.182871 -0.000976741 0
0.181641 0 0
0.192015 -0.00460352 0
0.187955 -0.00333632 0
0.184953 -0.002101 0
0.0981489 -0.00124322 0
0.0957183 -0.000882328 0
0.0940182 -0.000519807 0
0 0 0
0 0 0
0 0 0
0.184953 -0.002101 0
0.182871 -0.000976741 0
0.181641 0 0
0.0940182 -0.000519807 0
0.0928653 -0.000155877 0
0.0922852 0 0
0 0 0
0 0 0
0 0 0
1.78899 -0.422281 0
1.7473 -0.450348 0
1.70251 -0.472515 0
1.72259 -0.370084 0
1.68466 -0.396347 0
1.64412 -0.417475 0
1.6507 -0.324282 0
1.61746 -0.348815 0
1.58171 -0.369001 0
1.70251 -0.472515 0
1.65755 -0.488052 0
1.61092 -0.497536 0
1.64412 -0.417475 0
1.60325 -0.433264 0
1.56089 -0.443739 0
1.58171 -0.369001 0
1.54553 -0.384707 0
1.50788 -0.395809 0
1.6507 -0.324282 0
1.61746 -0.348815 0
1.58171 -0.369001 0
1.58268 -0.286138 0
1.55297 -0.307687 0
1.521 -0.325692 0
1.51132 -0.248888 0
1.48377 -0.268494 0
1.45415 -0.285065 0
1.58171 -0.369001 0
1.54553 -0.384707 0
1.50788 -0.395809 0
1.521 -0.325692 0
1.48836 -0.339944 0
1.45424 -0.350389 0
1.45415 -0.285065 0
1.42393 -0.298462 0
1.39234 -0.308609 0
1.61092 -0.497536 0
1.56719 -0.50111 0
1.5234 -0.498947 0
1.56089 -0.443739 0
1.52089 -0.449046 0
1.48071 -0.449715 0
1.50788 -0.395809 0
1.47193 -0.402542 0
1.43566 -0.405049 0
1.5234 -0.498947 0
1.48394 -0.492635 0
1.44546 -0.482036 0
1.48071 -0.449715 0
1.44403 -0.446307 0
1.40816 -0.43916 0
1.43566 -0.405049 0
1.40198 -0.40382 0
1.36888 -0.399091 0
1.50788 -0.395809 0
1.47193 -0.402542 0
1.43566 -0.405049 0
1.45424 -0.350389 0
1.4212 -0.35712 0
1.38763 -0.360294 0
1.39234 -0.308609 0
1.36155 -0.315593 0
1.33026 -0.319525 0
1.43566 -0.405049 0
1.40198 -0.40382 0
1.36888 -0.399091 0
1.38763 -0.360294 0
1.35596 -0.36029 0
1.3246 -0.357257 0
1.33026 -0.319525 0
1.30047 -0.32066 0
1.27091 -0.319117 0
1.51132 -0.248888 0
1.48377 -0.268494 0
1.45415 -0.285065 0
1.43677 -0.216311 0
1.41141 -0.234174 0
1.3841 -0.249396 0
1.3623 -0.185459 0
1.33879 -0.201688 0
1.31338 -0.215662 0
1.45415 -0.285065 0
1.42393 -0.298462 0
1.39234 -0.308609 0
1.3841 -0.249396 0
1.35621 -0.261848 0
1.32701 -0.27149 0
1.31338 -0.215662 0
1.28736 -0.227242 0
1.26005 -0.236398 0
1.3623 -0.185459 0
1.33879 -0.201688 0
1.31338 -0.215662 0
1.28672 -0.157278 0
1.26467 -0.171703 0
1.24081 -0.184201 0
1.20871 -0.130488 0
1.18782 -0.143304 0
1.16515 -0.154498 0
1.31338 -0.215662 0
1.28736 -0.227242 0
1.26005 -0.236398 0
1.24081 -0.184201 0
1.21627 -0.194659 0
1.19045 -0.203053 0
1.16515 -0.154498 0
1.1418 -0.163967 0
1.1172 -0.171684 0
1.39234 -0.308609 0
1.36155 -0.315593 0
1.33026 -0.319525 0
1.32701 -0.27149 0
1.29839 -0.278374 0
1.26922 -0.282587 0
1.26005 -0.236398 0
1.23309 -0.243154 0
1.20553 -0.247579 0
1.33026 -0.319525 0
1.30047 -0.32066 0
1.27091 -0.319117 0
1.26922 -0.282587 0
1.24122 -0.284332 0
1.21333 -0.283693 0
1.20553 -0.247579 0
1.17885 -0.249825 0
1.15219 -0.249962 0
1.26005 -0.236398 0
1.23309 -0.243154 0
1.20553 -0.247579 0
1.19045 -0.203053 0
1.16481 -0.209406 0
1.13851 -0.21376 0
1.1172 -0.171684 0
1.09265 -0.17766 0
1.06743 -0.181927 0
1.20553 -0.247579 0
1.17885 -0.249825 0
1.15219 -0.249962 0
1.13851 -0.21376 0
1.11288 -0.216245 0
1.08718 -0.216898 0
1.06743 -0.181927 0
1.04271 -0.184581 0
1.01786 -0.185651 0
1.44546 -0.482036 0
1.41207 -0.468749 0
1.38067 -0.452129 0
1.40816 -0.43916 0
1.37666 -0.428959 0
1.34685 -0.416185 0
1.36888 -0.399091 0
1.33919 -0.391555 0
1.31086 -0.381446 0
1.38067 -0.452129 0
1.35354 -0.434237 0
1.32877 -0.414624 0
1.34685 -0.416185 0
1.32071 -0.401596 0
1.2967 -0.385252 0
1.31086 -0.381446 0
1.28546 -0.369364 0
1.26179 -0.355495 0
1.36888 -0.399091 0
1.33919 -0.391555 0
1.31086 -0.381446 0
1.3246 -0.357257 0
1.29597 -0.351714 0
1.26839 -0.343826 0
1.27091 -0.319117 0
1.24361 -0.315281 0
1.21725 -0.309335 0
1.31086 -0.381446 0
1.28546 -0.369364 0
1.26179 -0.355495 0
1.26839 -0.343826 0
1.24331 -0.334149 0
1.21975 -0.322798 0
1.21725 -0.309335 0
1.19302 -0.301686 0
1.17015 -0.29244 0
1.32877 -0.414624 0
1.30793 -0.394416 0
1.28987 -0.373129 0
1.2967 -0.385252 0
1.27621 -0.367767 0
1.25811 -0.349347 0
1.26179 -0.355495 0
1.24107 -0.34041 0
1.22241 -0.324261 0
1.28987 -0.373129 0
1.27454 -0.352083 0
1.2615 -0.331273 0
1.25811 -0.349347 0
1.24234 -0.330434 0
1.22886 -0.310975 0
1.22241 -0.324261 0
1.20581 -0.307507 0
1.19126 -0.290442 0
1.26179 -0.355495 0
1.24107 -0.34041 0
1.22241 -0.324261 0
1.21975 -0.322798 0
1.1989 -0.310259 0
1.17995 -0.296659 0
1.17015 -0.29244 0
1.14967 -0.281978 0
1.13086 -0.27043 0
1.22241 -0.324261 0
1.20581 -0.307507 0
1.19126 -0.290442 0
1.17995 -0.296659 0
1.16296 -0.282373 0
1.1479 -0.267457 0
1.13086 -0.27043 0
1.11376 -0.258059 0
1.09837 -0.244986 0
1.27091 -0.319117 0
1.24361 -0.315281 0
1.21725 -0.309335 0
1.21333 -0.283693 0
1.18728 -0.280998 0
1.16198 -0.276391 0
1.15219 -0.249962 0
1.127 -0.248252 0
1.10241 -0.244818 0
1.21725 -0.309335 0
1.19302 -0.301686 0
1.17015 -0.29244 0
1.16198 -0.276391 0
1.13844 -0.270214 0
1.11603 -0.262538 0
1.10241 -0.244818 0
1.07931 -0.239937 0
1.05721 -0.233685 0
1.15219 -0.249962 0
1.127 -0.248252 0
1.10241 -0.244818 0
1.08718 -0.216898 0
1.06269 -0.215944 0
1.03867 -0.213461 0
1.01786 -0.185651 0
0.993983 -0.185308 0
0.970493 -0.183624 0
1.10241 -0.244818 0
1.07931 -0.239937 0
1.05721 -0.233685 0
1.03867 -0.213461 0
1.01595 -0.209686 0
0.994099 -0.204673 0
0.970493 -0.183624 0
0.94809 -0.180785 0
0.92645 -0.176837 0
1.17015 -0.29244 0
1.14967 -0.281978 0
1.13086 -0.27043 0
1.11603 -0.262538 0
1.09566 -0.253709 0
1.07676 -0.243863 0
1.05721 -0.233685 0
1.0369 -0.226357 0
1.01792 -0.21807 0
1.13086 -0.27043 0
1.11376 -0.258059 0
1.09837 -0.244986 0
1.07676 -0.243863 0
1.0594 -0.233256 0
1.04363 -0.221931 0
1.01792 -0.21807 0
1.0004 -0.209019 0
0.984346 -0.199259 0
1.05721 -0.233685 0
1.0369 -0.226357 0
1.01792 -0.21807 0
0.994099 -0.204673 0
0.973806 -0.198665 0
0.954718 -0.191752 0
0.92645 -0.176837 0
0.906159 -0.17198 0
0.886958 -0.166301 0
1.01792 -0.21807 0
1.0004 -0.209019 0
0.984346 -0.199259 0
0.954718 -0.191752 0
0.936939 -0.184111 0
0.920502 -0.175801 0
0.886958 -0.166301 0
0.86896 -0.159947 0
0.852228 -0.152968 0
1.20871 -0.130488 0
1.18782 -0.143304 0
1.16515 -0.154498 0
1.12901 -0.106284 0
1.10913 -0.117449 0
1.08752 -0.127251 0
1.04643 -0.0829354 0
1.02748 -0.0925345 0
1.00677 -0.101012 0
1.16515 -0.154498 0
1.1418 -0.163967 0
1.1172 -0.171684 0
1.08752 -0.127251 0
1.06519 -0.135594 0
1.04162 -0.142457 0
1.00677 -0.101012 0
0.985315 -0.108285 0
0.962586 -0.114331 0
1.04643 -0.0829354 0
1.02748 -0.0925345 0
1.00677 -0.101012 0
0.958171 -0.0615407 0
0.940362 -0.0694822 0
0.920747 -0.0765306 0
0.85789 -0.0416569 0
0.841785 -0.047897 0
0.823725 -0.0534745 0
1.00677 -0.101012 0
0.985315 -0.108285 0
0.962586 -0.114331 0
0.920747 -0.0765306 0
0.900292 -0.0826121 0
0.878505 -0.0877097 0
0.823725 -0.0534745 0
0.804714 -0.0583294 0
0.78426 -0.0624382 0
1.1172 -0.171684 0
1.09265 -0.17766 0
1.06743 -0.181927 0
1.04162 -0.142457 0
1.01797 -0.147845 0
0.993618 -0.151783 0
0.962586 -0.114331 0
0.939681 -0.119152 0
0.916023 -0.122765 0
1.06743 -0.181927 0
1.04271 -0.184581 0
1.01786 -0.185651 0
0.993618 -0.151783 0
0.969609 -0.15435 0
0.945403 -0.155565 0
0.916023 -0.122765 0
0.892588 -0.125232 0
0.868899 -0.126567 0
0.962586 -0.114331 0
0.939681 -0.119152 0
0.916023 -0.122765 0
0.878505 -0.0877097 0
0.856418 -0.0918233 0
0.833513 -0.0949602 0
0.78426 -0.0624382 0
0.763365 -0.065801 0
0.741555 -0.0684151 0
0.916023 -0.122765 0
0.892588 -0.125232 0
0.868899 -0.126567 0
0.833513 -0.0949602 0
0.810702 -0.0971718 0
0.787564 -0.098462 0
0.741555 -0.0684151 0
0.719701 -0.0703219 0
0.697433 -0.0715161 0
0.85789 -0.0416569 0
0.841785 -0.047897 0
0.823725 -0.0534745 0
0.734195 -0.0248058 0
0.720912 -0.0291911 0
0.705539 -0.0331372 0
0.566917 -0.0108393 0
0.557692 -0.013317 0
0.546381 -0.0155663 0
0.823725 -0.0534745 0
0.804714 -0.0583294 0
0.78426 -0.0624382 0
0.705539 -0.0331372 0
0.689027 -0.0365996 0
0.670927 -0.0395512 0
0.546381 -0.0155663 0
0.533842 -0.0175678 0
0.519688 -0.0192915 0
0.566917 -0.0108393 0
0.557692 -0.013317 0
0.546381 -0.0155663 0
0.330619 -0.00301665 0
0.326146 -0.00379659 0
0.320048 -0.00449814 0
0 0 0
0 0 0
0 0 0
0.546381 -0.0155663 0
0.533842 -0.0175678 0
0.519688 -0.0192915 0
0.320048 -0.00449814 0
0.313078 -0.00513166 0
0.304799 -0.00566345 0
0 0 0
0 0 0
0 0 0
0.78426 -0.0624382 0
0.763365 -0.065801 0
0.741555 -0.0684151 0
0.670927 -0.0395512 0
0.652189 -0.0419938 0
0.632397 -0.043915 0
0.519688 -0.0192915 0
0.504743 -0.0207486 0
0.488685 -0.021914 0
0.741555 -0.0684151 0
0.719701 -0.0703219 0
0.697433 -0.0715161 0
0.632397 -0.043915 0
0.612379 -0.0453496 0