# vtk DataFile Version 3.0
#This file was generated by the deal.II library on 2025/1/3 at 14:30:27
ASCII
DATASET UNSTRUCTURED_GRID

POINTS 34560 double
1.1 1.1 0
1.03125 1.09531 0
0.9625 1.09063 0
1.09375 1.03125 0
1.02539 1.02686 0
0.957031 1.02246 0
1.0875 0.9625 0
1.01953 0.958398 0
0.951563 0.954297 0
0.9625 1.09063 0
0.89375 1.08594 0
0.825 1.08125 0
0.957031 1.02246 0
0.888672 1.01807 0
0.820312 1.01367 0
0.951563 0.954297 0
0.883594 0.950195 0
0.815625 0.946094 0
1.0875 0.9625 0
1.01953 0.958398 0
0.951563 0.954297 0
1.08125 0.89375 0
1.01367 0.889941 0
0.946094 0.886133 0
1.075 0.825 0
1.00781 0.821484 0
0.940625 0.817969 0
0.951563 0.954297 0
0.883594 0.950195 0
0.815625 0.946094 0
0.946094 0.886133 0
0.878516 0.882324 0
0.810938 0.878516 0
0.940625 0.817969 0
0.873438 0.814453 0
0.80625 0.810937 0
0.825 1.08125 0
0.75625 1.07656 0
0.6875 1.07187 0
0.820312 1.01367 0
0.751953 1.00928 0
0.683594 1.00488 0
0.815625 0.946094 0
0.747656 0.941992 0
0.679688 0.937891 0
0.6875 1.07187 0
0.61875 1.06719 0
0.55 1.0625 0
0.683594 1.00488 0
0.615234 1.00049 0
0.546875 0.996094 0
0.679688 0.937891 0
0.611719 0.933789 0
0.54375 0.929688 0
0.815625 0.946094 0
0.747656 0.941992 0
0.679688 0.937891 0
0.810938 0.878516 0
0.743359 0.874707 0
0.675781 0.870898 0
0.80625 0.810937 0
0.739063 0.807422 0
0.671875 0.803906 0
0.679688 0.937891 0
0.611719 0.933789 0
0.54375 0.929688 0
0.675781 0.870898 0
0.608203 0.86709 0
0.540625 0.863281 0
0.671875 0.803906 0
0.604688 0.800391 0
0.5375 0.796875 0
1.075 0.825 0
1.00781 0.821484 0
0.940625 0.817969 0
1.06875 0.75625 0
1.00195 0.753027 0
0.935156 0.749805 0
1.0625 0.6875 0
0.996094 0.68457 0
0.929688 0.681641 0
0.940625 0.817969 0
0.873438 0.814453 0
0.80625 0.810937 0
0.935156 0.749805 0
0.868359 0.746582 0
0.801563 0.743359 0
0.929688 0.681641 0
0.863281 0.678711 0
0.796875 0.675781 0
1.0625 0.6875 0
0.996094 0.68457 0
0.929688 0.681641 0
1.05625 0.61875 0
0.990234 0.616113 0
0.924219 0.613477 0
1.05 0.55 0
0.984375 0.547656 0
0.91875 0.545313 0
0.929688 0.681641 0
0.863281 0.678711 0
0.796875 0.675781 0
0.924219 0.613477 0
0.858203 0.61084 0
0.792188 0.608203 0
0.91875 0.545313 0
0.853125 0.542969 0
0.7875 0.540625 0
0.80625 0.810937 0
0.739063 0.807422 0
0.671875 0.803906 0
0.801563 0.743359 0
0.734766 0.740137 0
0.667969 0.736914 0
0.796875 0.675781 0
0.730469 0.672852 0
0.664062 0.669922 0
0.671875 0.803906 0
0.604688 0.800391 0
0.5375 0.796875 0
0.667969 0.736914 0
0.601172 0.733691 0
0.534375 0.730469 0
0.664062 0.669922 0
0.597656 0.666992 0
0.53125 0.664062 0
0.796875 0.675781 0
0.730469 0.672852 0
0.664062 0.669922 0
0.792188 0.608203 0
0.726172 0.605566 0
0.660156 0.60293 0
0.7875 0.540625 0
0.721875 0.538281 0
0.65625 0.535937 0
0.664062 0.669922 0
0.597656 0.666992 0
0.53125 0.664062 0
0.660156 0.60293 0
0.594141 0.600293 0
0.528125 0.597656 0
0.65625 0.535937 0
0.590625 0.533594 0
0.525 0.53125 0
0.55 1.0625 0
0.48125 1.05781 0
0.4125 1.05313 0
0.546875 0.996094 0
0.478516 0.991699 0
0.410156 0.987305 0
0.54375 0.929688 0
0.475781 0.925586 0
0.407813 0.921484 0
0.4125 1.05313 0
0.34375 1.04844 0
0.275 1.04375 0
0.410156 0.987305 0
0.341797 0.98291 0
0.273438 0.978516 0
0.407813 0.921484 0
0.339844 0.917383 0
0.271875 0.913281 0
0.54375 0.929688 0
0.475781 0.925586 0
0.407813 0.921484 0
0.540625 0.863281 0
0.473047 0.859473 0
0.405469 0.855664 0
0.5375 0.796875 0
0.470313 0.793359 0
0.403125 0.789844 0
0.407813 0.921484 0
0.339844 0.917383 0
0.271875 0.913281 0
0.405469 0.855664 0
0.337891 0.851855 0
0.270313 0.848047 0
0.403125 0.789844 0
0.335938 0.786328 0
0.26875 0.782813 0
0.275 1.04375 0
0.20625 1.03906 0
0.1375 1.03437 0
0.273438 0.978516 0
0.205078 0.974121 0
0.136719 0.969727 0
0.271875 0.913281 0
0.203906 0.90918 0
0.135938 0.905078 0
0.1375 1.03437 0
0.06875 1.02969 0
0 1.025 0
0.136719 0.969727 0
0.0683594 0.965332 0
0 0.960937 0
0.135938 0.905078 0
0.0679688 0.900977 0
0 0.896875 0
0.271875 0.913281 0
0.203906 0.90918 0
0.135938 0.905078 0
0.270313 0.848047 0
0.202734 0.844238 0
0.135156 0.84043 0
0.26875 0.782813 0
0.201563 0.779297 0
0.134375 0.775781 0
0.135938 0.905078 0
0.0679688 0.900977 0
0 0.896875 0
0.135156 0.84043 0
0.0675781 0.836621 0
0 0.832812 0
0.134375 0.775781 0
0.0671875 0.772266 0
0 0.76875 0
0.5375 0.796875 0
0.470313 0.793359 0
0.403125 0.789844 0
0.534375 0.730469 0
0.467578 0.727246 0
0.400781 0.724023 0
0.53125 0.664062 0
0.464844 0.661133 0
0.398438 0.658203 0
0.403125 0.789844 0
0.335938 0.786328 0
0.26875 0.782813 0
0.400781 0.724023 0
0.333984 0.720801 0
0.267188 0.717578 0
0.398438 0.658203 0
0.332031 0.655273 0
0.265625 0.652344 0
0.53125 0.664062 0
0.464844 0.661133 0
0.398438 0.658203 0
0.528125 0.597656 0
0.462109 0.59502 0
0.396094 0.592383 0
0.525 0.53125 0
0.459375 0.528906 0
0.39375 0.526563 0
0.398438 0.658203 0
0.332031 0.655273 0
0.265625 0.652344 0
0.396094 0.592383 0
0.330078 0.589746 0
0.264062 0.587109 0
0.39375 0.526563 0
0.328125 0.524219 0
0.2625 0.521875 0
0.26875 0.782813 0
0.201563 0.779297 0
0.134375 0.775781 0
0.267188 0.717578 0
0.200391 0.714355 0
0.133594 0.711133 0
0.265625 0.652344 0
0.199219 0.649414 0
0.132812 0.646484 0
0.134375 0.775781 0
0.0671875 0.772266 0
0 0.76875 0
0.133594 0.711133 0
0.0667969 0.70791 0
0 0.704687 0
0.132812 0.646484 0
0.0664062 0.643555 0
0 0.640625 0
0.265625 0.652344 0
0.199219 0.649414 0
0.132812 0.646484 0
0.264062 0.587109 0
0.198047 0.584473 0
0.132031 0.581836 0
0.2625 0.521875 0
0.196875 0.519531 0
0.13125 0.517187 0
0.132812 0.646484 0
0.0664062 0.643555 0
0 0.640625 0
0.132031 0.581836 0
0.0660156 0.579199 0
0 0.576562 0
0.13125 0.517187 0
0.065625 0.514844 0
0 0.5125 0
1.05 0.55 0
0.984375 0.547656 0
0.91875 0.545313 0
1.04375 0.48125 0
0.978516 0.479199 0
0.913281 0.477148 0
1.0375 0.4125 0
0.972656 0.410742 0
0.907813 0.408984 0
0.91875 0.545313 0
0.853125 0.542969 0
0.7875 0.540625 0
0.913281 0.477148 0
0.848047 0.475098 0
0.782813 0.473047 0
0.907813 0.408984 0
0.842969 0.407227 0
0.778125 0.405469 0
1.0375 0.4125 0
0.972656 0.410742 0
0.907813 0.408984 0
1.03125 0.34375 0
0.966797 0.342285 0
0.902344 0.34082 0
1.025 0.275 0
0.960937 0.273828 0
0.896875 0.272656 0
0.907813 0.408984 0
0.842969 0.407227 0
0.778125 0.405469 0
0.902344 0.34082 0
0.837891 0.339355 0
0.773438 0.337891 0
0.896875 0.272656 0
0.832812 0.271484 0
0.76875 0.270313 0
0.7875 0.540625 0
0.721875 0.538281 0
0.65625 0.535937 0
0.782813 0.473047 0
0.717578 0.470996 0
0.652344 0.468945 0
0.778125 0.405469 0
0.713281 0.403711 0
0.648438 0.401953 0
0.65625 0.535937 0
0.590625 0.533594 0
0.525 0.53125 0
0.652344 0.468945 0
0.587109 0.466895 0
0.521875 0.464844 0
0.648438 0.401953 0
0.583594 0.400195 0
0.51875 0.398438 0
0.778125 0.405469 0
0.713281 0.403711 0
0.648438 0.401953 0
0.773438 0.337891 0
0.708984 0.336426 0
0.644531 0.334961 0
0.76875 0.270313 0
0.704687 0.269141 0
0.640625 0.267969 0
0.648438 0.401953 0
0.583594 0.400195 0
0.51875 0.398438 0
0.644531 0.334961 0
0.580078 0.333496 0
0.515625 0.332031 0
0.640625 0.267969 0
0.576562 0.266797 0
0.5125 0.265625 0
1.025 0.275 0
0.960937 0.273828 0
0.896875 0.272656 0
1.01875 0.20625 0
0.955078 0.205371 0
0.891406 0.204492 0
1.0125 0.1375 0
0.949219 0.136914 0
0.885937 0.136328 0
0.896875 0.272656 0
0.832812 0.271484 0
0.76875 0.270313 0
0.891406 0.204492 0
0.827734 0.203613 0
0.764062 0.202734 0
0.885937 0.136328 0
0.822656 0.135742 0
0.759375 0.135156 0
1.0125 0.1375 0
0.949219 0.136914 0
0.885937 0.136328 0
1.00625 0.06875 0
0.943359 0.068457 0
0.880469 0.0681641 0
1 0 0
0.9375 0 0
0.875 0 0
0.885937 0.136328 0
0.822656 0.135742 0
0.759375 0.135156 0
0.880469 0.0681641 0
0.817578 0.0678711 0
0.754687 0.0675781 0
0.875 0 0
0.8125 0 0
0.75 0 0
0.76875 0.270313 0
0.704687 0.269141 0
0.640625 0.267969 0
0.764062 0.202734 0
0.700391 0.201855 0
0.636719 0.200977 0
0.759375 0.135156 0
0.696094 0.13457 0
0.632812 0.133984 0
0.640625 0.267969 0
0.576562 0.266797 0
0.5125 0.265625 0
0.636719 0.200977 0
0.573047 0.200098 0
0.509375 0.199219 0
0.632812 0.133984 0
0.569531 0.133398 0
0.50625 0.132812 0
0.759375 0.135156 0
0.696094 0.13457 0
0.632812 0.133984 0
0.754687 0.0675781 0
0.691797 0.0672852 0
0.628906 0.0669922 0
0.75 0 0
0.6875 0 0
0.625 0 0
0.632812 0.133984 0
0.569531 0.133398 0
0.50625 0.132812 0
0.628906 0.0669922 0
0.566016 0.0666992 0
0.503125 0.0664062 0
0.625 0 0
0.5625 0 0
0.5 0 0
0.525 0.53125 0
0.459375 0.528906 0
0.39375 0.526563 0
0.521875 0.464844 0
0.456641 0.462793 0
0.391406 0.460742 0
0.51875 0.398438 0
0.453906 0.39668 0
0.389063 0.394922 0
0.39375 0.526563 0
0.328125 0.524219 0
0.2625 0.521875 0
0.391406 0.460742 0
0.326172 0.458691 0
0.260938 0.456641 0
0.389063 0.394922 0
0.324219 0.393164 0
0.259375 0.391406 0
0.51875 0.398438 0
0.453906 0.39668 0
0.389063 0.394922 0
0.515625 0.332031 0
0.451172 0.330566 0
0.386719 0.329102 0
0.5125 0.265625 0
0.448437 0.264453 0
0.384375 0.263281 0
0.389063 0.394922 0
0.324219 0.393164 0
0.259375 0.391406 0
0.386719 0.329102 0
0.322266 0.327637 0
0.257812 0.326172 0
0.384375 0.263281 0
0.320312 0.262109 0
0.25625 0.260937 0
0.2625 0.521875 0
0.196875 0.519531 0
0.13125 0.517187 0
0.260938 0.456641 0
0.195703 0.45459 0
0.130469 0.452539 0
0.259375 0.391406 0
0.194531 0.389648 0
0.129688 0.387891 0
0.13125 0.517187 0
0.065625 0.514844 0
0 0.5125 0
0.130469 0.452539 0
0.0652344 0.450488 0
0 0.448437 0
0.129688 0.387891 0
0.0648438 0.386133 0
0 0.384375 0
0.259375 0.391406 0
0.194531 0.389648 0
0.129688 0.387891 0
0.257812 0.326172 0
0.193359 0.324707 0
0.128906 0.323242 0
0.25625 0.260937 0
0.192187 0.259766 0
0.128125 0.258594 0
0.129688 0.387891 0
0.0648438 0.386133 0
0 0.384375 0
0.128906 0.323242 0
0.0644531 0.321777 0
0 0.320312 0
0.128125 0.258594 0
0.0640625 0.257422 0
0 0.25625 0
0.5125 0.265625 0
0.448437 0.264453 0
0.384375 0.263281 0
0.509375 0.199219 0
0.445703 0.19834 0
0.382031 0.197461 0
0.50625 0.132812 0
0.442969 0.132227 0
0.379688 0.131641 0
0.384375 0.263281 0
0.320312 0.262109 0
0.25625 0.260937 0
0.382031 0.197461 0
0.318359 0.196582 0
0.254687 0.195703 0
[...]
POINT_DATA 34560
VECTORS v double
1.19723 -0.218662 0
1.18818 -0.193776 0
1.18063 -0.172085 0
1.16653 -0.207407 0
1.15529 -0.185464 0
1.14603 -0.165433 0
1.13116 -0.19522 0
1.11843 -0.175327 0
1.1073 -0.157004 0
1.18063 -0.172085 0
1.17422 -0.152062 0
1.16902 -0.134409 0
1.14603 -0.165433 0
1.13756 -0.147054 0
1.13074 -0.130514 0
1.1073 -0.157004 0
1.09726 -0.140133 0
1.08868 -0.124758 0
1.13116 -0.19522 0
1.11843 -0.175327 0
1.1073 -0.157004 0
1.08955 -0.18041 0
1.0754 -0.162802 0
1.06291 -0.14646 0
1.04179 -0.165821 0
1.02683 -0.150217 0
1.01337 -0.1356 0
1.1073 -0.157004 0
1.09726 -0.140133 0
1.08868 -0.124758 0
1.06291 -0.14646 0
1.05154 -0.131279 0
1.04165 -0.117352 0
1.01337 -0.1356 0
1.0011 -0.121936 0
0.990229 -0.109305 0
1.16902 -0.134409 0
1.16416 -0.118331 0
1.16019 -0.104001 0
1.13074 -0.130514 0
1.12409 -0.11537 0
1.11873 -0.101742 0
1.08868 -0.124758 0
1.0806 -0.11065 0
1.07375 -0.0978171 0
1.16019 -0.104001 0
1.15612 -0.0909167 0
1.15266 -0.0790565 0
1.11873 -0.101742 0
1.11321 -0.0891875 0
1.10861 -0.0777419 0
1.07375 -0.0978171 0
1.06701 -0.0859615 0
1.06124 -0.0750649 0
1.08868 -0.124758 0
1.0806 -0.11065 0
1.07375 -0.0978171 0
1.04165 -0.117352 0
1.0324 -0.104456 0
1.02439 -0.092655 0
0.990229 -0.109305 0
0.980099 -0.0975534 0
0.971175 -0.0867325 0
1.07375 -0.0978171 0
1.06701 -0.0859615 0
1.06124 -0.0750649 0
1.02439 -0.092655 0
1.01669 -0.0816717 0
1.00998 -0.0715146 0
0.971175 -0.0867325 0
0.962708 -0.0766198 0
0.95524 -0.0672202 0
1.04179 -0.165821 0
1.02683 -0.150217 0
1.01337 -0.1356 0
0.988667 -0.150321 0
0.973113 -0.136623 0
0.95898 -0.123708 0
0.930617 -0.134973 0
0.914714 -0.122975 0
0.900113 -0.111595 0
1.01337 -0.1356 0
1.0011 -0.121936 0
0.990229 -0.109305 0
0.95898 -0.123708 0
0.946031 -0.111554 0
0.934406 -0.100262 0
0.900113 -0.111595 0
0.88669 -0.100843 0
0.874512 -0.090809 0
0.930617 -0.134973 0
0.914714 -0.122975 0
0.900113 -0.111595 0
0.867517 -0.118794 0
0.851408 -0.108458 0
0.836548 -0.0986205 0
0.799591 -0.103084 0
0.783491 -0.0942537 0
0.768558 -0.0858162 0
0.900113 -0.111595 0
0.88669 -0.100843 0
0.874512 -0.090809 0
0.836548 -0.0986205 0
0.822833 -0.0892887 0
0.810314 -0.0805506 0
0.768558 -0.0858162 0
0.754746 -0.0777909 0
0.742069 -0.0702563 0
0.990229 -0.109305 0
0.980099 -0.0975534 0
0.971175 -0.0867325 0
0.934406 -0.100262 0
0.923601 -0.0897074 0
0.913963 -0.0799462 0
0.874512 -0.090809 0
0.863212 -0.0814012 0
0.853036 -0.072671 0
0.971175 -0.0867325 0
0.962708 -0.0766198 0
0.95524 -0.0672202 0
0.913963 -0.0799462 0
0.904901 -0.0707889 0
0.896834 -0.0622443 0
0.853036 -0.072671 0
0.843526 -0.064464 0
0.835 -0.056785 0
0.874512 -0.090809 0
0.863212 -0.0814012 0
0.853036 -0.072671 0
0.810314 -0.0805506 0
0.798699 -0.0723336 0
0.788173 -0.0646914 0
0.742069 -0.0702563 0
0.730312 -0.063163 0
0.719601 -0.056558 0
0.853036 -0.072671 0
0.843526 -0.064464 0
0.835 -0.056785 0
0.788173 -0.0646914 0
0.778374 -0.0574932 0
0.769546 -0.0507472 0
0.719601 -0.056558 0
0.70966 -0.0503379 0
0.700666 -0.0445068 0
1.15266 -0.0790565 0
1.14899 -0.0680341 0
1.14572 -0.0577666 0
1.10861 -0.0777419 0
1.10383 -0.0670232 0
1.09972 -0.0570031 0
1.06124 -0.0750649 0
1.05551 -0.0648236 0
1.05054 -0.0551966 0
1.14572 -0.0577666 0
1.14215 -0.0479401 0
1.13883 -0.0384587 0
1.09972 -0.0570031 0
1.09537 -0.0473598 0
1.09147 -0.0380326 0
1.05054 -0.0551966 0
1.04552 -0.0459001 0
1.04107 -0.0368734 0
1.06124 -0.0750649 0
1.05551 -0.0648236 0
1.05054 -0.0551966 0
1.00998 -0.0715146 0
1.00351 -0.0619082 0
0.997842 -0.0528322 0
0.95524 -0.0672202 0
0.948159 -0.0582979 0
0.941921 -0.0498304 0
1.05054 -0.0551966 0
1.04552 -0.0459001 0
1.04107 -0.0368734 0
0.997842 -0.0528322 0
0.992307 -0.0440238 0
0.987413 -0.0354301 0
0.941921 -0.0498304 0
0.935959 -0.0415818 0
0.930702 -0.0335029 0
1.13883 -0.0384587 0
1.13532 -0.0290503 0
1.13198 -0.0196193 0
1.09147 -0.0380326 0
1.08749 -0.0287571 0
1.08387 -0.0194512 0
1.04107 -0.0368734 0
1.03669 -0.0278738 0
1.03279 -0.0188347 0
1.13198 -0.0196193 0
1.12843 -0.00994934 0
1.125 0 0
1.08387 -0.0194512 0
1.08012 -0.00989858 0
1.07666 0 0
1.03279 -0.0188347 0
1.02889 -0.00955677 0
1.02539 0 0
1.04107 -0.0368734 0
1.03669 -0.0278738 0
1.03279 -0.0188347 0
0.987413 -0.0354301 0
0.98274 -0.0268277 0
0.978633 -0.0181653 0
0.930702 -0.0335029 0
0.925791 -0.0253908 0
0.921523 -0.0171978 0
1.03279 -0.0188347 0
1.02889 -0.00955677 0
1.02539 0 0
0.978633 -0.0181653 0
0.974663 -0.00925001 0
0.971191 0 0
0.921523 -0.0171978 0
0.917502 -0.00874838 0
0.914062 0 0
0.95524 -0.0672202 0
0.948159 -0.0582979 0
0.941921 -0.0498304 0
0.896834 -0.0622443 0
0.889279 -0.0541025 0
0.882593 -0.0463455 0
0.835 -0.056785 0
0.827084 -0.0494522 0
0.820054 -0.0424455 0
0.941921 -0.0498304 0
0.935959 -0.0415818 0
0.930702 -0.0335029 0
0.882593 -0.0463455 0
0.87631 -0.0387572 0
0.870783 -0.0312944 0
0.820054 -0.0424455 0
0.813534 -0.0355693 0
0.80781 -0.02878 0
0.835 -0.056785 0
0.827084 -0.0494522 0
0.820054 -0.0424455 0
0.769546 -0.0507472 0
0.761398 -0.0442917 0
0.754146 -0.0381095 0
0.700666 -0.0445068 0
0.692403 -0.0389267 0
0.685032 -0.0335778 0
0.820054 -0.0424455 0
0.813534 -0.0355693 0
0.80781 -0.02878 0
0.754146 -0.0381095 0
0.747486 -0.0320189 0
0.741653 -0.0259794 0
0.685032 -0.0335778 0
0.678314 -0.0282956 0
0.672442 -0.0230369 0
0.930702 -0.0335029 0
0.925791 -0.0253908 0
0.921523 -0.0171978 0
0.870783 -0.0312944 0
0.865714 -0.0237662 0
0.861354 -0.0161325 0
0.80781 -0.02878 0
0.802638 -0.0219014 0
0.798232 -0.0148955 0
0.921523 -0.0171978 0
0.917502 -0.00874838 0
0.914062 0 0
0.861354 -0.0161325 0
0.857351 -0.00822863 0
0.854004 0 0
0.798232 -0.0148955 0
0.794266 -0.00761076 0
0.791016 0 0
0.80781 -0.02878 0
0.802638 -0.0219014 0
0.798232 -0.0148955 0
0.741653 -0.0259794 0
0.73645 -0.0198239 0
0.73206 -0.0135191 0
0.672442 -0.0230369 0
0.667262 -0.0176448 0
0.662932 -0.0120845 0
0.798232 -0.0148955 0
0.794266 -0.00761076 0
0.791016 0 0
0.73206 -0.0135191 0
0.728191 -0.00692254 0
0.725098 0 0
0.662932 -0.0120845 0
0.659183 -0.00622272 0
0.65625 0 0
0.799591 -0.103084 0
0.783491 -0.0942537 0
0.768558 -0.0858162 0
0.727025 -0.0869271 0
0.711017 -0.0795439 0
0.696142 -0.0724793 0
0.649712 -0.071266 0
0.633954 -0.0652419 0
0.619284 -0.0594698 0
0.768558 -0.0858162 0
0.754746 -0.0777909 0
0.742069 -0.0702563 0
0.696142 -0.0724793 0
0.682357 -0.0657491 0
0.669671 -0.0594255 0
0.619284 -0.0594698 0
0.605688 -0.0539678 0
0.593158 -0.0487973 0
0.649712 -0.071266 0
0.633954 -0.0652419 0
0.619284 -0.0594698 0
0.567364 -0.0553587 0
0.551984 -0.050664 0
0.537686 -0.0461736 0
0.478816 -0.040211 0
0.464173 -0.0367955 0
0.450581 -0.0335349 0
0.619284 -0.0594698 0
0.605688 -0.0539678 0
0.593158 -0.0487973 0
0.537686 -0.0461736 0
0.524445 -0.0418976 0
0.512255 -0.0378867 0
0.450581 -0.0335349 0
0.438022 -0.0304342 0
0.426482 -0.0275342 0
0.742069 -0.0702563 0
0.730312 -0.063163 0
0.719601 -0.056558 0
0.669671 -0.0594255 0
0.657914 -0.0534695 0
0.647174 -0.0479254 0
0.593158 -0.0487973 0
0.581563 -0.0439302 0
0.570958 -0.0394054 0
0.719601 -0.056558 0
0.70966 -0.0503379 0
0.700666 -0.0445068 0
0.647174 -0.0479254 0
0.637232 -0.0427079 0
0.628217 -0.0378224 0
0.570958 -0.0394054 0
0.561168 -0.0351562 0
0.55228 -0.0311863 0
0.593158 -0.0487973 0
0.581563 -0.0439302 0
0.570958 -0.0394054 0
0.512255 -0.0378867 0
0.500999 -0.0341166 0
0.490714 -0.030621 0
0.426482 -0.0275342 0
0.415857 -0.0248135 0
0.406165 -0.0222994 0
0.570958 -0.0394054 0
0.561168 -0.0351562 0
0.55228 -0.0311863 0
0.490714 -0.030621 0
0.481249 -0.0273457 0
0.472664 -0.0242953 0
0.406165 -0.0222994 0
0.397275 -0.0199493 0
0.389222 -0.0177687 0
0.478816 -0.040211 0
0.464173 -0.0367955 0
0.450581 -0.0335349 0
0.382189 -0.0256017 0
0.368881 -0.0234052 0
0.356581 -0.021321 0
0.273996 -0.0130302 0
0.263185 -0.0119267 0
0.253212 -0.0108864 0
0.450581 -0.0335349 0
0.438022 -0.0304342 0
0.426482 -0.0275342 0
0.356581 -0.021321 0
0.345241 -0.0193463 0
0.334854 -0.0175107 0
0.253212 -0.0108864 0
0.244036 -0.00989916 0
0.235644 -0.00898775 0
0.273996 -0.0130302 0
0.263185 -0.0119267 0
0.253212 -0.0108864 0
0.149495 -0.00368089 0
0.14287 -0.00336051 0
0.136774 -0.00306723 0
0 0 0
0 0 0
0 0 0
0.253212 -0.0108864 0
0.244036 -0.00989916 0
0.235644 -0.00898775 0
0.136774 -0.00306723 0
0.131147 -0.00278739 0
0.126001 -0.00253772 0
0 0 0
0 0 0
0 0 0
0.426482 -0.0275342 0
0.415857 -0.0248135 0
0.406165 -0.0222994 0
0.334854 -0.0175107 0
0.325315 -0.0157939 0
0.316634 -0.0142164 0
0.235644 -0.00898775 0
0.227947 -0.00813308 0
0.220941 -0.00735243 0
0.406165 -0.0222994 0
0.397275 -0.0199493 0
0.389222 -0.0177687 0
0.316634 -0.0142164 0
0.308689 -0.0127437 0
0.301503 -0.0113834 0
0.220941 -0.00735243 0
0.214531 -0.00662138 0
0.208726 -0.00594984 0
0.235644 -0.00898775 0
0.227947 -0.00813308 0
0.220941 -0.00735243 0
0.126001 -0.00253772 0
0.121258 -0.00229891 0
0.116933 -0.0020877 0
0 0 0
0 0 0
0 0 0
0.220941 -0.00735243 0
0.214531 -0.00662138 0
0.208726 -0.00594984 0
0.116933 -0.0020877 0
0.112951 -0.00188398 0
0.109334 -0.00170279 0
0 0 0
0 0 0
0 0 0
0.700666 -0.0445068 0
0.692403 -0.0389267 0
0.685032 -0.0335778 0
0.628217 -0.0378224 0
0.61996 -0.0331495 0
0.612587 -0.0286719 0
0.55228 -0.0311863 0
0.54416 -0.0273979 0
0.536903 -0.0237751 0
0.685032 -0.0335778 0
0.678314 -0.0282956 0
0.672442 -0.0230369 0
0.612587 -0.0286719 0
0.605905 -0.0242393 0
0.600078 -0.0198086 0
0.536903 -0.0237751 0
0.530353 -0.0201862 0
0.52465 -0.0165855 0
0.55228 -0.0311863 0
0.54416 -0.0273979 0
0.536903 -0.0237751 0
0.472664 -0.0242953 0
0.464837 -0.0213894 0
0.457842 -0.0186186 0
0.389222 -0.0177687 0
0.381895 -0.0156966 0
0.375347 -0.0137272 0
0.536903 -0.0237751 0
0.530353 -0.0201862 0
0.52465 -0.0165855 0
0.457842 -0.0186186 0
0.451547 -0.0158711 0
0.446072 -0.0131047 0
0.375347 -0.0137272 0
0.369463 -0.0117739 0
0.364347 -0.00979974 0
0.672442 -0.0230369 0
0.667262 -0.0176448 0
0.662932 -0.0120845 0
0.600078 -0.0198086 0
0.594984 -0.0152301 0
0.590768 -0.0104703 0
0.52465 -0.0165855 0
0.5197 -0.0128341 0
0.515641 -0.00889518 0
0.662932 -0.0120845 0
0.659183 -0.00622272 0
0.65625 0 0
0.590768 -0.0104703 0
0.587189 -0.00540052 0
0.584473 0 0
0.515641 -0.00889518 0
0.512259 -0.00464543 0
0.509766 0 0
0.52465 -0.0165855 0
0.5197 -0.0128341 0
0.515641 -0.00889518 0
0.446072 -0.0131047 0
0.441341 -0.0101928 0
0.437492 -0.00710354 0
0.364347 -0.00979974 0
0.359934 -0.0076997 0
0.356364 -0.0054367 0
0.515641 -0.00889518 0
0.512259 -0.00464543 0
0.509766 0 0
0.437492 -0.00710354 0
0.434351 -0.00371565 0
0.432129 0 0
0.356364 -0.0054367 0
0.353503 -0.00290961 0
0.351562 0 0
0.389222 -0.0177687 0
0.381895 -0.0156966 0
0.375347 -0.0137272 0
0.301503 -0.0113834 0
0.294967 -0.0100889 0
0.289127 -0.00886119 0
0.208726 -0.00594984 0
0.203438 -0.00530784 0
0.198699 -0.00470018 0
0.375347 -0.0137272 0
0.369463 -0.0117739 0
0.364347 -0.00979974 0
0.289127 -0.00886119 0
0.283878 -0.00763732 0
0.279313 -0.00639409 0
0.198699 -0.00470018 0
0.194428 -0.00409025 0
0.190706 -0.00347085 0
0.208726 -0.00594984 0
0.203438 -0.00530784 0
0.198699 -0.00470018 0
0.109334 -0.00170279 0
0.10601 -0.00152409 0
0.103029 -0.00135813 0
0 0 0
0 0 0
0 0 0
0.198699 -0.00470018 0
0.194428 -0.00409025 0
0.190706 -0.00347085 0
0.103029 -0.00135813 0
0.10031 -0.00118172 0
0.0979396 -0.0010062 0
0 0 0
0 0 0
0 0 0
0.364347 -0.00979974 0
0.359934 -0.0076997 0
0.356364 -0.0054367 0
0.279313 -0.00639409 0
0.275369 -0.00504805 0
0.272195 -0.00357676 0
0.190706 -0.00347085 0
0.187482 -0.00279352 0
0.184898 -0.0020273 0
0.356364 -0.0054367 0
0.353503 -0.00290961 0
0.351562 0 0
0.272195 -0.00357676 0
0.269686 -0.00189146 0
0.268066 0 0
0.184898 -0.0020273 0
0.182882 -0.0011319 0
0.181641 0 0
0.190706 -0.00347085 0
0.187482 -0.00279352 0
0.184898 -0.0020273 0
0.0979396 -0.0010062 0
0.0958565 -0.000812084 0
0.0942424 -0.000581326 0
0 0 0
0 0 0
0 0 0
0.184898 -0.0020273 0
0.182882 -0.0011319 0
0.181641 0 0
0.0942424 -0.000581326 0
0.0929604 -0.000271963 0
0.0922852 0 0
0 0 0
0 0 0
0 0 0
1.59744 -0.398146 0
1.56323 -0.413539 0
1.52603 -0.424261 0
1.53913 -0.354977 0
1.50794 -0.368843 0
1.47433 -0.378596 0
1.4767 -0.316996 0
1.44928 -0.32946 0
1.41969 -0.338504 0
1.52603 -0.424261 0
1.48895 -0.429172 0
1.45022 -0.42901 0
1.47433 -0.378596 0
1.44083 -0.383907 0
1.40597 -0.384847 0
1.41969 -0.338504 0
1.39021 -0.343947 0
1.35949 -0.345651 0
1.4767 -0.316996 0
1.44928 -0.32946 0
1.41969 -0.338504 0
1.41679 -0.284666 0
1.39197 -0.294697 0
1.36539 -0.302007 0
1.35323 -0.252845 0
1.32977 -0.261467 0
1.30485 -0.267837 0
1.41969 -0.338504 0
1.39021 -0.343947 0
1.35949 -0.345651 0
1.36539 -0.302007 0
1.33866 -0.306394 0
1.31083 -0.307795 0
1.30485 -0.267837 0
1.27989 -0.27183 0
1.25407 -0.273352 0
1.45022 -0.42901 0
1.41464 -0.423778 0
1.37895 -0.413817 0
1.40597 -0.384847 0
1.3737 -0.381496 0
1.34132 -0.374432 0
1.35949 -0.345651 0
1.33072 -0.343819 0
1.30177 -0.338637 0
1.37895 -0.413817 0
1.34772 -0.400499 0
1.31755 -0.383823 0
1.34132 -0.374432 0
1.31261 -0.364105 0
1.28481 -0.350941 0
1.30177 -0.338637 0
1.27562 -0.330531 0
1.25016 -0.319791 0
1.35949 -0.345651 0
1.33072 -0.343819 0
1.30177 -0.338637 0
1.31083 -0.307795 0
1.28435 -0.306307 0
1.2576 -0.302073 0
1.25407 -0.273352 0
1.22936 -0.272475 0
1.20451 -0.269303 0
1.30177 -0.338637 0
1.27562 -0.330531 0
1.25016 -0.319791 0
1.2576 -0.302073 0
1.23302 -0.295449 0
1.20894 -0.286634 0
1.20451 -0.269303 0
1.18145 -0.264075 0
1.1589 -0.256946 0
1.35323 -0.252845 0
1.32977 -0.261467 0
1.30485 -0.267837 0
1.28648 -0.224402 0
1.26442 -0.231897 0
1.24116 -0.237466 0
1.21884 -0.196884 0
1.19785 -0.203456 0
1.1758 -0.208404 0
1.30485 -0.267837 0
1.27989 -0.27183 0
1.25407 -0.273352 0
1.24116 -0.237466 0
1.2179 -0.240998 0
1.19393 -0.242437 0
1.1758 -0.208404 0
1.15377 -0.211632 0
1.13111 -0.213084 0
1.21884 -0.196884 0
1.19785 -0.203456 0
1.1758 -0.208404 0
1.14938 -0.170854 0
1.12908 -0.17645 0
1.10788 -0.180678 0
1.07716 -0.145564 0
1.05727 -0.150431 0
1.0366 -0.154157 0
1.1758 -0.208404 0
1.15377 -0.211632 0
1.13111 -0.213084 0
1.10788 -0.180678 0
1.08669 -0.183475 0
1.06497 -0.184782 0
1.0366 -0.154157 0
1.01598 -0.156693 0
0.994913 -0.157979 0
1.25407 -0.273352 0
1.22936 -0.272475 0
1.20451 -0.269303 0
1.19393 -0.242437 0
1.17088 -0.241834 0
1.14772 -0.239262 0
1.13111 -0.213084 0
1.10921 -0.212795 0
1.08721 -0.21082 0
1.20451 -0.269303 0
1.18145 -0.264075 0
1.1589 -0.256946 0
1.14772 -0.239262 0
1.12601 -0.234917 0
1.10474 -0.228918 0
1.08721 -0.21082 0
1.06642 -0.207312 0
1.04602 -0.202368 0
1.13111 -0.213084 0
1.10921 -0.212795 0
1.08721 -0.21082 0
1.06497 -0.184782 0
1.04389 -0.184642 0
1.02273 -0.18308 0
0.994913 -0.157979 0
0.974423 -0.158048 0
0.953906 -0.156914 0
1.08721 -0.21082 0
1.06642 -0.207312 0
1.04602 -0.202368 0
1.02273 -0.18308 0
1.00262 -0.180228 0
0.982872 -0.176145 0
0.953906 -0.156914 0
0.934298 -0.154677 0
0.915049 -0.151384 0
1.31755 -0.383823 0
1.29245 -0.365382 0
1.26938 -0.344703 0
1.28481 -0.350941 0
1.26132 -0.335587 0
1.23955 -0.318618 0
1.25016 -0.319791 0
1.22802 -0.30708 0
1.20727 -0.29272 0
1.26938 -0.344703 0
1.25047 -0.323588 0
1.23391 -0.301751 0
1.23955 -0.318618 0
1.22133 -0.300691 0
1.20521 -0.281946 0
1.20727 -0.29272 0
1.18943 -0.277261 0
1.17333 -0.260947 0
1.25016 -0.319791 0
1.22802 -0.30708 0
1.20727 -0.29272 0
1.20894 -0.286634 0
1.18759 -0.276113 0
1.1674 -0.2641 0
1.1589 -0.256946 0
1.13863 -0.248263 0
1.11943 -0.238246 0
1.20727 -0.29272 0
1.18943 -0.277261 0
1.17333 -0.260947 0
1.1674 -0.2641 0
1.14974 -0.251092 0
1.13363 -0.237298 0
1.11943 -0.238246 0
1.10237 -0.227266 0
1.08669 -0.215502 0
1.23391 -0.301751 0
1.22105 -0.280227 0
1.21083 -0.258703 0
1.20521 -0.281946 0
1.1923 -0.262944 0
1.18165 -0.244023 0
1.17333 -0.260947 0
1.15991 -0.244322 0
1.14843 -0.227609 0
1.21083 -0.258703 0
1.20298 -0.238147 0
1.19723 -0.218662 0
1.18165 -0.244023 0
1.17304 -0.225509 0
1.16653 -0.207407 0
1.14843 -0.227609 0
1.13887 -0.211154 0
1.13116 -0.19522 0
1.17333 -0.260947 0
1.15991 -0.244322 0
1.14843 -0.227609 0
1.13363 -0.237298 0
1.11997 -0.223134 0
1.10808 -0.208764 0
1.08669 -0.215502 0
1.07315 -0.203278 0
1.06116 -0.190781 0
1.14843 -0.227609 0
1.13887 -0.211154 0
1.13116 -0.19522 0
1.10808 -0.208764 0
1.09797 -0.194475 0
1.08955 -0.18041 0
1.06116 -0.190781 0
1.05072 -0.178239 0
1.04179 -0.165821 0
1.1589 -0.256946 0
1.13863 -0.248263 0
1.11943 -0.238246 0
1.10474 -0.228918 0
1.08535 -0.221565 0
1.06688 -0.213029 0
1.04602 -0.202368 0
1.02722 -0.196226 0
1.00924 -0.189033 0
1.11943 -0.238246 0
1.10237 -0.227266 0
1.08669 -0.215502 0
1.06688 -0.213029 0
1.05022 -0.203624 0
1.03475 -0.193484 0
1.00924 -0.189033 0
0.99284 -0.181041 0
0.977528 -0.172377 0
1.04602 -0.202368 0
1.02722 -0.196226 0
1.00924 -0.189033 0
0.982872 -0.176145 0
0.964506 -0.171033 0
0.946895 -0.164998 0
0.915049 -0.151384 0
0.897003 -0.147193 0
0.879662 -0.142197 0
1.00924 -0.189033 0
0.99284 -0.181041 0
0.977528 -0.172377 0
0.946895 -0.164998 0
0.930676 -0.158256 0
0.915454 -0.150905 0
0.879662 -0.142197 0
0.863557 -0.136567 0
0.848377 -0.130389 0
1.08669 -0.215502 0
1.07315 -0.203278 0
1.06116 -0.190781 0
1.03475 -0.193484 0
1.02114 -0.182911 0
1.00892 -0.172074 0
0.977528 -0.172377 0
0.963876 -0.16329 0
0.951493 -0.153929 0
1.06116 -0.190781 0
1.05072 -0.178239 0
1.04179 -0.165821 0
1.00892 -0.172074 0
0.998111 -0.161181 0
0.988667 -0.150321 0
0.951493 -0.153929 0
0.940423 -0.144457 0
0.930617 -0.134973 0
0.977528 -0.172377 0
0.963876 -0.16329 0
0.951493 -0.153929 0
0.915454 -0.150905 0
0.901707 -0.143155 0
0.889124 -0.13513 0
0.848377 -0.130389 0
0.834525 -0.123837 0
0.821758 -0.117027 0
0.951493 -0.153929 0
0.940423 -0.144457 0
0.930617 -0.134973 0
0.889124 -0.13513 0
0.877741 -0.12698 0
0.867517 -0.118794 0
0.821758 -0.117027 0
0.810122 -0.110083 0
0.799591 -0.103084 0
1.07716 -0.145564 0
1.05727 -0.150431 0
1.0366 -0.154157 0
1.00284 -0.121672 0
0.983208 -0.125822 0
0.962895 -0.129016 0
0.925378 -0.0980401 0
0.905877 -0.101616 0
0.885735 -0.104403 0
1.0366 -0.154157 0
1.01598 -0.156693 0
0.994913 -0.157979 0
0.962895 -0.129016 0
0.942642 -0.131212 0
0.922015 -0.132361 0
0.885735 -0.104403 0
0.865671 -0.106369 0
0.845273 -0.107471 0
0.925378 -0.0980401 0
0.905877 -0.101616 0
0.885735 -0.104403 0
0.842292 -0.0751816 0
0.823068 -0.0781673 0
0.803221 -0.0805171 0
0.747456 -0.0530743 0
0.729048 -0.0554934 0
0.709947 -0.0574303 0
0.885735 -0.104403 0
0.865671 -0.106369 0
0.845273 -0.107471 0
0.803221 -0.0805171 0
0.78342 -0.0822069 0
0.763291 -0.0832025 0
0.709947 -0.0574303 0
0.690838 -0.0588682 0
0.671362 -0.0597764 0
0.994913 -0.157979 0
0.974423 -0.158048 0
0.953906 -0.156914 0
0.922015 -0.132361 0
0.901893 -0.132493 0
0.881766 -0.131616 0
0.845273 -0.107471 0
0.82533 -0.107734 0
0.805403 -0.107161 0
0.953906 -0.156914 0
0.934298 -0.154677 0
0.915049 -0.151384 0
0.881766 -0.131616 0
0.862442 -0.129817 0
0.843465 -0.127128 0
0.805403 -0.107161 0
0.786204 -0.105823 0
0.767353 -0.103745 0
0.845273 -0.107471 0
0.82533 -0.107734 0
0.805403 -0.107161 0
0.763291 -0.0832025 0
0.743556 -0.0835255 0
0.723832 -0.0831752 0
0.671362 -0.0597764 0
0.652199 -0.0601725 0
0.633017 -0.0600528 0
0.805403 -0.107161 0
0.786204 -0.105823 0
0.767353 -0.103745 0
0.723832 -0.0831752 0
0.704762 -0.0822104 0
0.686025 -0.0806474 0
0.633017 -0.0600528 0
0.614405 -0.0594634 0
0.596097 -0.0584146 0
0.747456 -0.0530743 0
0.729048 -0.0554934 0
0.709947 -0.0574303 0
0.630986 -0.0328906 0
0.614559 -0.0346466 0
0.597342 -0.0360747 0
0.477334 -0.0153584 0
0.464698 -0.0164136 0
0.451198 -0.0172946 0
0.709947 -0.0574303 0
0.690838 -0.0588682 0
0.671362 -0.0597764 0
0.597342 -0.0360747 0
0.579989 -0.0371602 0
0.562179 -0.0378804 0
0.451198 -0.0172946 0
0.437431 -0.0179973 0
0.42313 -0.0185004 0
0.477334 -0.0153584 0
0.464698 -0.0164136 0
0.451198 -0.0172946 0
0.270189 -0.00423204 0
0.263454 -0.00457054 0
0.255955 -0.00485354 0
0 0 0
0 0 0
0 0 0
0.451198 -0.0172946 0
0.437431 -0.0179973 0
0.42313 -0.0185004 0
0.255955 -0.00485354 0
0.248226 -0.00508491 0
0.239966 -0.00524605 0
0 0 0
0 0 0
0 0 0
0.671362 -0.0597764 0
0.652199 -0.0601725 0
0.633017 -0.0600528 0
0.562179 -0.0378804 0
0.544554 -0.0382487 0