# vtk DataFile Version 3.0
#This file was generated by the deal.II library on 2025/1/3 at 14:37:50
ASCII
DATASET UNSTRUCTURED_GRID

POINTS 34560 double
1.1 1.1 0
1.03125 1.09531 0
0.9625 1.09063 0
1.09375 1.03125 0
1.02539 1.02686 0
0.957031 1.02246 0
1.0875 0.9625 0
1.01953 0.958398 0
0.951563 0.954297 0
0.9625 1.09063 0
0.89375 1.08594 0
0.825 1.08125 0
0.957031 1.02246 0
0.888672 1.01807 0
0.820312 1.01367 0
0.951563 0.954297 0
0.883594 0.950195 0
0.815625 0.946094 0
1.0875 0.9625 0
1.01953 0.958398 0
0.951563 0.954297 0
1.08125 0.89375 0
1.01367 0.889941 0
0.946094 0.886133 0
1.075 0.825 0
1.00781 0.821484 0
0.940625 0.817969 0
0.951563 0.954297 0
0.883594 0.950195 0
0.815625 0.946094 0
0.946094 0.886133 0
0.878516 0.882324 0
0.810938 0.878516 0
0.940625 0.817969 0
0.873438 0.814453 0
0.80625 0.810937 0
0.825 1.08125 0
0.75625 1.07656 0
0.6875 1.07187 0
0.820312 1.01367 0
0.751953 1.00928 0
0.683594 1.00488 0
0.815625 0.946094 0
0.747656 0.941992 0
0.679688 0.937891 0
0.6875 1.07187 0
0.61875 1.06719 0
0.55 1.0625 0
0.683594 1.00488 0
0.615234 1.00049 0
0.546875 0.996094 0
0.679688 0.937891 0
0.611719 0.933789 0
0.54375 0.929688 0
0.815625 0.946094 0
0.747656 0.941992 0
0.679688 0.937891 0
0.810938 0.878516 0
0.743359 0.874707 0
0.675781 0.870898 0
0.80625 0.810937 0
0.739063 0.807422 0
0.671875 0.803906 0
0.679688 0.937891 0
0.611719 0.933789 0
0.54375 0.929688 0
0.675781 0.870898 0
0.608203 0.86709 0
0.540625 0.863281 0
0.671875 0.803906 0
0.604688 0.800391 0
0.5375 0.796875 0
1.075 0.825 0
1.00781 0.821484 0
0.940625 0.817969 0
1.06875 0.75625 0
1.00195 0.753027 0
0.935156 0.749805 0
1.0625 0.6875 0
0.996094 0.68457 0
0.929688 0.681641 0
0.940625 0.817969 0
0.873438 0.814453 0
0.80625 0.810937 0
0.935156 0.749805 0
0.868359 0.746582 0
0.801563 0.743359 0
0.929688 0.681641 0
0.863281 0.678711 0
0.796875 0.675781 0
1.0625 0.6875 0
0.996094 0.68457 0
0.929688 0.681641 0
1.05625 0.61875 0
0.990234 0.616113 0
0.924219 0.613477 0
1.05 0.55 0
0.984375 0.547656 0
0.91875 0.545313 0
0.929688 0.681641 0
0.863281 0.678711 0
0.796875 0.675781 0
0.924219 0.613477 0
0.858203 0.61084 0
0.792188 0.608203 0
0.91875 0.545313 0
0.853125 0.542969 0
0.7875 0.540625 0
0.80625 0.810937 0
0.739063 0.807422 0
0.671875 0.803906 0
0.801563 0.743359 0
0.734766 0.740137 0
0.667969 0.736914 0
0.796875 0.675781 0
0.730469 0.672852 0
0.664062 0.669922 0
0.671875 0.803906 0
0.604688 0.800391 0
0.5375 0.796875 0
0.667969 0.736914 0
0.601172 0.733691 0
0.534375 0.730469 0
0.664062 0.669922 0
0.597656 0.666992 0
0.53125 0.664062 0
0.796875 0.675781 0
0.730469 0.672852 0
0.664062 0.669922 0
0.792188 0.608203 0
0.726172 0.605566 0
0.660156 0.60293 0
0.7875 0.540625 0
0.721875 0.538281 0
0.65625 0.535937 0
0.664062 0.669922 0
0.597656 0.666992 0
0.53125 0.664062 0
0.660156 0.60293 0
0.594141 0.600293 0
0.528125 0.597656 0
0.65625 0.535937 0
0.590625 0.533594 0
0.525 0.53125 0
0.55 1.0625 0
0.48125 1.05781 0
0.4125 1.05313 0
0.546875 0.996094 0
0.478516 0.991699 0
0.410156 0.987305 0
0.54375 0.929688 0
0.475781 0.925586 0
0.407813 0.921484 0
0.4125 1.05313 0
0.34375 1.04844 0
0.275 1.04375 0
0.410156 0.987305 0
0.341797 0.98291 0
0.273438 0.978516 0
0.407813 0.921484 0
0.339844 0.917383 0
0.271875 0.913281 0
0.54375 0.929688 0
0.475781 0.925586 0
0.407813 0.921484 0
0.540625 0.863281 0
0.473047 0.859473 0
0.405469 0.855664 0
0.5375 0.796875 0
0.470313 0.793359 0
0.403125 0.789844 0
0.407813 0.921484 0
0.339844 0.917383 0
0.271875 0.913281 0
0.405469 0.855664 0
0.337891 0.851855 0
0.270313 0.848047 0
0.403125 0.789844 0
0.335938 0.786328 0
0.26875 0.782813 0
0.275 1.04375 0
0.20625 1.03906 0
0.1375 1.03437 0
0.273438 0.978516 0
0.205078 0.974121 0
0.136719 0.969727 0
0.271875 0.913281 0
0.203906 0.90918 0
0.135938 0.905078 0
0.1375 1.03437 0
0.06875 1.02969 0
0 1.025 0
0.136719 0.969727 0
0.0683594 0.965332 0
0 0.960937 0
0.135938 0.905078 0
0.0679688 0.900977 0
0 0.896875 0
0.271875 0.913281 0
0.203906 0.90918 0
0.135938 0.905078 0
0.270313 0.848047 0
0.202734 0.844238 0
0.135156 0.84043 0
0.26875 0.782813 0
0.201563 0.779297 0
0.134375 0.775781 0
0.135938 0.905078 0
0.0679688 0.900977 0
0 0.896875 0
0.135156 0.84043 0
0.0675781 0.836621 0
0 0.832812 0
0.134375 0.775781 0
0.0671875 0.772266 0
0 0.76875 0
0.5375 0.796875 0
0.470313 0.793359 0
0.403125 0.789844 0
0.534375 0.730469 0
0.467578 0.727246 0
0.400781 0.724023 0
0.53125 0.664062 0
0.464844 0.661133 0
0.398438 0.658203 0
0.403125 0.789844 0
0.335938 0.786328 0
0.26875 0.782813 0
0.400781 0.724023 0
0.333984 0.720801 0
0.267188 0.717578 0
0.398438 0.658203 0
0.332031 0.655273 0
0.265625 0.652344 0
0.53125 0.664062 0
0.464844 0.661133 0
0.398438 0.658203 0
0.528125 0.597656 0
0.462109 0.59502 0
0.396094 0.592383 0
0.525 0.53125 0
0.459375 0.528906 0
0.39375 0.526563 0
0.398438 0.658203 0
0.332031 0.655273 0
0.265625 0.652344 0
0.396094 0.592383 0
0.330078 0.589746 0
0.264062 0.587109 0
0.39375 0.526563 0
0.328125 0.524219 0
0.2625 0.521875 0
0.26875 0.782813 0
0.201563 0.779297 0
0.134375 0.775781 0
0.267188 0.717578 0
0.200391 0.714355 0
0.133594 0.711133 0
0.265625 0.652344 0
0.199219 0.649414 0
0.132812 0.646484 0
0.134375 0.775781 0
0.0671875 0.772266 0
0 0.76875 0
0.133594 0.711133 0
0.0667969 0.70791 0
0 0.704687 0
0.132812 0.646484 0
0.0664062 0.643555 0
0 0.640625 0
0.265625 0.652344 0
0.199219 0.649414 0
0.132812 0.646484 0
0.264062 0.587109 0
0.198047 0.584473 0
0.132031 0.581836 0
0.2625 0.521875 0
0.196875 0.519531 0
0.13125 0.517187 0
0.132812 0.646484 0
0.0664062 0.643555 0
0 0.640625 0
0.132031 0.581836 0
0.0660156 0.579199 0
0 0.576562 0
0.13125 0.517187 0
0.065625 0.514844 0
0 0.5125 0
1.05 0.55 0
0.984375 0.547656 0
0.91875 0.545313 0
1.04375 0.48125 0
0.978516 0.479199 0
0.913281 0.477148 0
1.0375 0.4125 0
0.972656 0.410742 0
0.907813 0.408984 0
0.91875 0.545313 0
0.853125 0.542969 0
0.7875 0.540625 0
0.913281 0.477148 0
0.848047 0.475098 0
0.782813 0.473047 0
0.907813 0.408984 0
0.842969 0.407227 0
0.778125 0.405469 0
1.0375 0.4125 0
0.972656 0.410742 0
0.907813 0.408984 0
1.03125 0.34375 0
0.966797 0.342285 0
0.902344 0.34082 0
1.025 0.275 0
0.960937 0.273828 0
0.896875 0.272656 0
0.907813 0.408984 0
0.842969 0.407227 0
0.778125 0.405469 0
0.902344 0.34082 0
0.837891 0.339355 0
0.773438 0.337891 0
0.896875 0.272656 0
0.832812 0.271484 0
0.76875 0.270313 0
0.7875 0.540625 0
0.721875 0.538281 0
0.65625 0.535937 0
0.782813 0.473047 0
0.717578 0.470996 0
0.652344 0.468945 0
0.778125 0.405469 0
0.713281 0.403711 0
0.648438 0.401953 0
0.65625 0.535937 0
0.590625 0.533594 0
0.525 0.53125 0
0.652344 0.468945 0
0.587109 0.466895 0
0.521875 0.464844 0
0.648438 0.401953 0
0.583594 0.400195 0
0.51875 0.398438 0
0.778125 0.405469 0
0.713281 0.403711 0
0.648438 0.401953 0
0.773438 0.337891 0
0.708984 0.336426 0
0.644531 0.334961 0
0.76875 0.270313 0
0.704687 0.269141 0
0.640625 0.267969 0
0.648438 0.401953 0
0.583594 0.400195 0
0.51875 0.398438 0
0.644531 0.334961 0
0.580078 0.333496 0
0.515625 0.332031 0
0.640625 0.267969 0
0.576562 0.266797 0
0.5125 0.265625 0
1.025 0.275 0
0.960937 0.273828 0
0.896875 0.272656 0
1.01875 0.20625 0
0.955078 0.205371 0
0.891406 0.204492 0
1.0125 0.1375 0
0.949219 0.136914 0
0.885937 0.136328 0
0.896875 0.272656 0
0.832812 0.271484 0
0.76875 0.270313 0
0.891406 0.204492 0
0.827734 0.203613 0
0.764062 0.202734 0
0.885937 0.136328 0
0.822656 0.135742 0
0.759375 0.135156 0
1.0125 0.1375 0
0.949219 0.136914 0
0.885937 0.136328 0
1.00625 0.06875 0
0.943359 0.068457 0
0.880469 0.0681641 0
1 0 0
0.9375 0 0
0.875 0 0
0.885937 0.136328 0
0.822656 0.135742 0
0.759375 0.135156 0
0.880469 0.0681641 0
0.817578 0.0678711 0
0.754687 0.0675781 0
0.875 0 0
0.8125 0 0
0.75 0 0
0.76875 0.270313 0
0.704687 0.269141 0
0.640625 0.267969 0
0.764062 0.202734 0
0.700391 0.201855 0
0.636719 0.200977 0
0.759375 0.135156 0
0.696094 0.13457 0
0.632812 0.133984 0
0.640625 0.267969 0
0.576562 0.266797 0
0.5125 0.265625 0
0.636719 0.200977 0
0.573047 0.200098 0
0.509375 0.199219 0
0.632812 0.133984 0
0.569531 0.133398 0
0.50625 0.132812 0
0.759375 0.135156 0
0.696094 0.13457 0
0.632812 0.133984 0
0.754687 0.0675781 0
0.691797 0.0672852 0
0.628906 0.0669922 0
0.75 0 0
0.6875 0 0
0.625 0 0
0.632812 0.133984 0
0.569531 0.133398 0
0.50625 0.132812 0
0.628906 0.0669922 0
0.566016 0.0666992 0
0.503125 0.0664062 0
0.625 0 0
0.5625 0 0
0.5 0 0
0.525 0.53125 0
0.459375 0.528906 0
0.39375 0.526563 0
0.521875 0.464844 0
0.456641 0.462793 0
0.391406 0.460742 0
0.51875 0.398438 0
0.453906 0.39668 0
0.389063 0.394922 0
0.39375 0.526563 0
0.328125 0.524219 0
0.2625 0.521875 0
0.391406 0.460742 0
0.326172 0.458691 0
0.260938 0.456641 0
0.389063 0.394922 0
0.324219 0.393164 0
0.259375 0.391406 0
0.51875 0.398438 0
0.453906 0.39668 0
0.389063 0.394922 0
0.515625 0.332031 0
0.451172 0.330566 0
0.386719 0.329102 0
0.5125 0.265625 0
0.448437 0.264453 0
0.384375 0.263281 0
0.389063 0.394922 0
0.324219 0.393164 0
0.259375 0.391406 0
0.386719 0.329102 0
0.322266 0.327637 0
0.257812 0.326172 0
0.384375 0.263281 0
0.320312 0.262109 0
0.25625 0.260937 0
0.2625 0.521875 0
0.196875 0.519531 0
0.13125 0.517187 0
0.260938 0.456641 0
0.195703 0.45459 0
0.130469 0.452539 0
0.259375 0.391406 0
0.194531 0.389648 0
0.129688 0.387891 0
0.13125 0.517187 0
0.065625 0.514844 0
0 0.5125 0
0.130469 0.452539 0
0.0652344 0.450488 0
0 0.448437 0
0.129688 0.387891 0
0.0648438 0.386133 0
0 0.384375 0
0.259375 0.391406 0
0.194531 0.389648 0
0.129688 0.387891 0
0.257812 0.326172 0
0.193359 0.324707 0
0.128906 0.323242 0
0.25625 0.260937 0
0.192187 0.259766 0
0.128125 0.258594 0
0.129688 0.387891 0
0.0648438 0.386133 0
0 0.384375 0
0.128906 0.323242 0
0.0644531 0.321777 0
0 0.320312 0
0.128125 0.258594 0
0.0640625 0.257422 0
0 0.25625 0
0.5125 0.265625 0
0.448437 0.264453 0
0.384375 0.263281 0
0.509375 0.199219 0
0.445703 0.19834 0
0.382031 0.197461 0
0.50625 0.132812 0
0.442969 0.132227 0
0.379688 0.131641 0
0.384375 0.263281 0
0.320312 0.262109 0
0.25625 0.260937 0
0.382031 0.197461 0
0.318359 0.196582 0
0.254687 0.195703 0
[...]
POINT_DATA 34560
VECTORS v double
1.26352 -0.309305 0
1.24627 -0.28389 0
1.23095 -0.260507 0
1.23057 -0.28958 0
1.21163 -0.267596 0
1.19486 -0.246421 0
1.19278 -0.269811 0
1.17278 -0.250282 0
1.15456 -0.231207 0
1.23095 -0.260507 0
1.21744 -0.237759 0
1.20567 -0.216403 0
1.19486 -0.246421 0
1.1796 -0.225849 0
1.16642 -0.206177 0
1.15456 -0.231207 0
1.13807 -0.21259 0
1.12342 -0.194522 0
1.19278 -0.269811 0
1.17278 -0.250282 0
1.15456 -0.231207 0
1.14911 -0.247544 0
1.12808 -0.230577 0
1.10884 -0.213842 0
1.0992 -0.226041 0
1.07771 -0.211339 0
1.05783 -0.196644 0
1.15456 -0.231207 0
1.13807 -0.21259 0
1.12342 -0.194522 0
1.10884 -0.213842 0
1.09128 -0.197308 0
1.07553 -0.181125 0
1.05783 -0.196644 0
1.03963 -0.181982 0
1.02314 -0.167486 0
1.20567 -0.216403 0
1.19483 -0.19577 0
1.18549 -0.176088 0
1.16642 -0.206177 0
1.154 -0.187014 0
1.14342 -0.16861 0
1.12342 -0.194522 0
1.10979 -0.17687 0
1.0979 -0.159732 0
1.18549 -0.176088 0
1.17651 -0.157006 0
1.16877 -0.138541 0
1.14342 -0.16861 0
1.13313 -0.150585 0
1.12437 -0.133094 0
1.0979 -0.159732 0
1.08654 -0.142895 0
1.07672 -0.126442 0
1.12342 -0.194522 0
1.10979 -0.17687 0
1.0979 -0.159732 0
1.07553 -0.181125 0
1.06091 -0.165146 0
1.048 -0.149519 0
1.02314 -0.167486 0
1.00783 -0.153067 0
0.994166 -0.138859 0
1.0979 -0.159732 0
1.08654 -0.142895 0
1.07672 -0.126442 0
1.048 -0.149519 0
1.0358 -0.134048 0
1.02514 -0.118834 0
0.994166 -0.138859 0
0.98134 -0.124712 0
0.970035 -0.11072 0
1.0992 -0.226041 0
1.07771 -0.211339 0
1.05783 -0.196644 0
1.04413 -0.204005 0
1.0224 -0.191397 0
1.00216 -0.178648 0
0.984486 -0.182518 0
0.962712 -0.171739 0
0.942284 -0.160726 0
1.05783 -0.196644 0
1.03963 -0.181982 0
1.02314 -0.167486 0
1.00216 -0.178648 0
0.983526 -0.165788 0
0.966493 -0.152971 0
0.942284 -0.160726 0
0.923377 -0.149528 0
0.905966 -0.13828 0
0.984486 -0.182518 0
0.962712 -0.171739 0
0.942284 -0.160726 0
0.920271 -0.160366 0
0.898541 -0.151316 0
0.87807 -0.141995 0
0.851571 -0.138979 0
0.830084 -0.131467 0
0.80974 -0.123665 0
0.942284 -0.160726 0
0.923377 -0.149528 0
0.905966 -0.13828 0
0.87807 -0.141995 0
0.859025 -0.132439 0
0.841399 -0.122771 0
0.80974 -0.123665 0
0.790727 -0.115603 0
0.773042 -0.107393 0
1.02314 -0.167486 0
1.00783 -0.153067 0
0.994166 -0.138859 0
0.966493 -0.152971 0
0.950674 -0.140125 0
0.936441 -0.127382 0
0.905966 -0.13828 0
0.889782 -0.126933 0
0.875118 -0.115607 0
0.994166 -0.138859 0
0.98134 -0.124712 0
0.970035 -0.11072 0
0.936441 -0.127382 0
0.923135 -0.114619 0
0.911327 -0.101927 0
0.875118 -0.115607 0
0.861452 -0.104205 0
0.849256 -0.0928098 0
0.905966 -0.13828 0
0.889782 -0.126933 0
0.875118 -0.115607 0
0.841399 -0.122771 0
0.824984 -0.112947 0
0.810036 -0.103082 0
0.773042 -0.107393 0
0.756536 -0.099001 0
0.741433 -0.0905291 0
0.875118 -0.115607 0
0.861452 -0.104205 0
0.849256 -0.0928098 0
0.810036 -0.103082 0
0.796128 -0.0930925 0
0.783666 -0.083057 0
0.741433 -0.0905291 0
0.727395 -0.0819082 0
0.714768 -0.0732074 0
1.16877 -0.138541 0
1.16127 -0.120473 0
1.15481 -0.102772 0
1.12437 -0.133094 0
1.11585 -0.115847 0
1.10862 -0.0989366 0
1.07672 -0.126442 0
1.06734 -0.11017 0
1.05932 -0.0941492 0
1.15481 -0.102772 0
1.14842 -0.0853131 0
1.14289 -0.0680449 0
1.10862 -0.0989366 0
1.1015 -0.0821677 0
1.09546 -0.0655757 0
1.05932 -0.0941492 0
1.05158 -0.0782256 0
1.04501 -0.0624327 0
1.07672 -0.126442 0
1.06734 -0.11017 0
1.05932 -0.0941492 0
1.02514 -0.118834 0
1.0151 -0.103703 0
1.00643 -0.0887388 0
0.970035 -0.11072 0
0.959479 -0.0967462 0
0.950318 -0.0828674 0
1.05932 -0.0941492 0
1.05158 -0.0782256 0
1.04501 -0.0624327 0
1.00643 -0.0887388 0
0.998247 -0.0738096 0
0.991271 -0.0589532 0
0.950318 -0.0828674 0
0.941774 -0.0689778 0
0.934484 -0.0551164 0
1.14289 -0.0680449 0
1.13758 -0.0509065 0
1.13304 -0.0338539 0
1.09546 -0.0655757 0
1.08971 -0.0490703 0
1.0849 -0.0326545 0
1.04501 -0.0624327 0
1.03889 -0.0467016 0
1.03381 -0.0310532 0
1.13304 -0.0338539 0
1.12868 -0.0168923 0
1.125 0 0
1.0849 -0.0326545 0
1.08036 -0.0163136 0
1.07666 0 0
1.03381 -0.0310532 0
1.02913 -0.0154861 0
1.02539 0 0
1.04501 -0.0624327 0
1.03889 -0.0467016 0
1.03381 -0.0310532 0
0.991271 -0.0589532 0
0.984893 -0.0441205 0
0.979621 -0.0293509 0
0.934484 -0.0551164 0
0.927909 -0.0412566 0
0.922493 -0.0274383 0
1.03381 -0.0310532 0
1.02913 -0.0154861 0
1.02539 0 0
0.979621 -0.0293509 0
0.9749 -0.0146516 0
0.971191 0 0
0.922493 -0.0274383 0
0.917742 -0.0136864 0
0.914062 0 0
0.970035 -0.11072 0
0.959479 -0.0967462 0
0.950318 -0.0828674 0
0.911327 -0.101927 0
0.900375 -0.089192 0
0.890824 -0.0764882 0
0.849256 -0.0928098 0
0.838003 -0.0813285 0
0.828153 -0.0698283 0
0.950318 -0.0828674 0
0.941774 -0.0689778 0
0.934484 -0.0551164 0
0.890824 -0.0764882 0
0.882015 -0.0637285 0
0.874493 -0.0509555 0
0.828153 -0.0698283 0
0.819152 -0.0582398 0
0.811466 -0.0466026 0
0.849256 -0.0928098 0
0.838003 -0.0813285 0
0.828153 -0.0698283 0
0.783666 -0.083057 0
0.77221 -0.0728956 0
0.762159 -0.0626724 0
0.714768 -0.0732074 0
0.703193 -0.0643602 0
0.693019 -0.0554216 0
0.828153 -0.0698283 0
0.819152 -0.0582398 0
0.811466 -0.0466026 0
0.762159 -0.0626724 0
0.753042 -0.0523267 0
0.745266 -0.0418999 0
0.693019 -0.0554216 0
0.683847 -0.0463417 0
0.676037 -0.0371563 0
0.934484 -0.0551164 0
0.927909 -0.0412566 0
0.922493 -0.0274383 0
0.874493 -0.0509555 0
0.867792 -0.0381535 0
0.862297 -0.0253711 0
0.811466 -0.0466026 0
0.80469 -0.034914 0
0.799161 -0.0232242 0
0.922493 -0.0274383 0
0.917742 -0.0136864 0
0.914062 0 0
0.862297 -0.0253711 0
0.857583 -0.0126481 0
0.854004 0 0
0.799161 -0.0232242 0
0.794501 -0.0115861 0
0.791016 0 0
0.811466 -0.0466026 0
0.80469 -0.034914 0
0.799161 -0.0232242 0
0.745266 -0.0418999 0
0.738475 -0.031395 0
0.732969 -0.0208689 0
0.676037 -0.0371563 0
0.669278 -0.027874 0
0.663835 -0.0185497 0
0.799161 -0.0232242 0
0.794501 -0.0115861 0
0.791016 0 0
0.732969 -0.0208689 0
0.72842 -0.0103869 0
0.725098 0 0
0.663835 -0.0185497 0
0.659416 -0.00925817 0
0.65625 0 0
0.851571 -0.138979 0
0.830084 -0.131467 0
0.80974 -0.123665 0
0.778795 -0.117388 0
0.757611 -0.111271 0
0.737489 -0.10488 0
0.701678 -0.0964597 0
0.68095 -0.0916138 0
0.66119 -0.0865193 0
0.80974 -0.123665 0
0.790727 -0.115603 0
0.773042 -0.107393 0
0.737489 -0.10488 0
0.718593 -0.0982336 0
0.700951 -0.091434 0
0.66119 -0.0865193 0
0.642561 -0.0811912 0
0.625103 -0.0757178 0
0.701678 -0.0964597 0
0.68095 -0.0916138 0
0.66119 -0.0865193 0
0.619999 -0.0755478 0
0.599849 -0.0718485 0
0.580605 -0.0679485 0
0.532208 -0.055509 0
0.512965 -0.052868 0
0.494552 -0.0500734 0
0.66119 -0.0865193 0
0.642561 -0.0811912 0
0.625103 -0.0757178 0
0.580605 -0.0679485 0
0.56239 -0.0638516 0
0.545279 -0.0596344 0
0.494552 -0.0500734 0
0.47707 -0.0471223 0
0.460612 -0.0440815 0
0.773042 -0.107393 0
0.756536 -0.099001 0
0.741433 -0.0905291 0
0.700951 -0.091434 0
0.684445 -0.0844484 0
0.669286 -0.0773656 0
0.625103 -0.0757178 0
0.608732 -0.0700675 0
0.593644 -0.0643186 0
0.741433 -0.0905291 0
0.727395 -0.0819082 0
0.714768 -0.0732074 0
0.669286 -0.0773656 0
0.655199 -0.0701237 0
0.642493 -0.0627837 0
0.593644 -0.0643186 0
0.579616 -0.0584156 0
0.566931 -0.0524104 0
0.625103 -0.0757178 0
0.608732 -0.0700675 0
0.593644 -0.0643186 0
0.545279 -0.0596344 0
0.529187 -0.0552646 0
0.514317 -0.05081 0
0.460612 -0.0440815 0
0.445098 -0.0409189 0
0.430725 -0.0376926 0
0.593644 -0.0643186 0
0.579616 -0.0584156 0
0.566931 -0.0524104 0
0.514317 -0.05081 0
0.500478 -0.04622 0
0.487935 -0.0415378 0
0.430725 -0.0376926 0
0.417331 -0.0343576 0
0.405165 -0.0309511 0
0.532208 -0.055509 0
0.512965 -0.052868 0
0.494552 -0.0500734 0
0.435803 -0.0362457 0
0.417975 -0.0345305 0
0.400922 -0.0327181 0
0.323721 -0.0189018 0
0.308609 -0.0180324 0
0.294147 -0.0171163 0
0.494552 -0.0500734 0
0.47707 -0.0471223 0
0.460612 -0.0440815 0
0.400922 -0.0327181 0
0.384685 -0.0307966 0
0.369396 -0.0288219 0
0.294147 -0.0171163 0
0.280361 -0.0161329 0
0.267384 -0.0151265 0
0.323721 -0.0189018 0
0.308609 -0.0180324 0
0.294147 -0.0171163 0
0.183993 -0.00561631 0
0.174089 -0.00533815 0
0.164675 -0.0050594 0
0 0 0
0 0 0
0 0 0
0.294147 -0.0171163 0
0.280361 -0.0161329 0
0.267384 -0.0151265 0
0.164675 -0.0050594 0
0.155665 -0.00475267 0
0.147244 -0.00445328 0
0 0 0
0 0 0
0 0 0
0.460612 -0.0440815 0
0.445098 -0.0409189 0
0.430725 -0.0376926 0
0.369396 -0.0288219 0
0.354951 -0.0267623 0
0.341561 -0.0246658 0
0.267384 -0.0151265 0
0.255113 -0.0140663 0
0.243739 -0.0129919 0
0.430725 -0.0376926 0
0.417331 -0.0343576 0
0.405165 -0.0309511 0
0.341561 -0.0246658 0
0.32906 -0.0224936 0
0.317697 -0.0202788 0
0.243739 -0.0129919 0
0.233114 -0.0118723 0
0.223456 -0.0107368 0
0.267384 -0.0151265 0
0.255113 -0.0140663 0
0.243739 -0.0129919 0
0.147244 -0.00445328 0
0.13925 -0.00412611 0
0.1319 -0.00380678 0
0 0 0
0 0 0
0 0 0
0.243739 -0.0129919 0
0.233114 -0.0118723 0
0.223456 -0.0107368 0
0.1319 -0.00380678 0
0.125002 -0.00346366 0
0.118789 -0.00312726 0
0 0 0
0 0 0
0 0 0
0.714768 -0.0732074 0
0.703193 -0.0643602 0
0.693019 -0.0554216 0
0.642493 -0.0627837 0
0.630868 -0.0552859 0
0.62064 -0.0476784 0
0.566931 -0.0524104 0
0.555339 -0.0462499 0
0.545129 -0.0399746 0
0.693019 -0.0554216 0
0.683847 -0.0463417 0
0.676037 -0.0371563 0
0.62064 -0.0476784 0
0.611469 -0.0399148 0
0.603678 -0.0320276 0
0.545129 -0.0399746 0
0.536016 -0.033542 0
0.528295 -0.026976 0
0.566931 -0.0524104 0
0.555339 -0.0462499 0
0.545129 -0.0399746 0
0.487935 -0.0415378 0
0.476476 -0.0367147 0
0.466374 -0.0317848 0
0.405165 -0.0309511 0
0.394042 -0.0274302 0
0.384225 -0.0238212 0
0.545129 -0.0399746 0
0.536016 -0.033542 0
0.528295 -0.026976 0
0.466374 -0.0317848 0
0.45739 -0.026707 0
0.449801 -0.0214967 0
0.384225 -0.0238212 0
0.375515 -0.0200848 0
0.368178 -0.0162302 0
0.676037 -0.0371563 0
0.669278 -0.027874 0
0.663835 -0.0185497 0
0.603678 -0.0320276 0
0.596994 -0.0240247 0
0.59166 -0.0159639 0
0.528295 -0.026976 0
0.521726 -0.0202833 0
0.516536 -0.013515 0
0.663835 -0.0185497 0
0.659416 -0.00925817 0
0.65625 0 0
0.59166 -0.0159639 0
0.587417 -0.00792502 0
0.584473 0 0
0.516536 -0.013515 0
0.512491 -0.00675528 0
0.509766 0 0
0.528295 -0.026976 0
0.521726 -0.0202833 0
0.516536 -0.013515 0
0.449801 -0.0214967 0
0.443393 -0.0161539 0
0.438386 -0.0107321 0
0.368178 -0.0162302 0
0.362022 -0.0122499 0
0.357265 -0.00817735 0
0.516536 -0.013515 0
0.512491 -0.00675528 0
0.509766 0 0
0.438386 -0.0107321 0
0.434576 -0.00530686 0
0.432129 0 0
0.357265 -0.00817735 0
0.35373 -0.00409717 0
0.351562 0 0
0.405165 -0.0309511 0
0.394042 -0.0274302 0
0.384225 -0.0238212 0
0.317697 -0.0202788 0
0.307293 -0.0179845 0
0.298107 -0.0156319 0
0.223456 -0.0107368 0
0.214605 -0.00955646 0
0.206792 -0.00834811 0
0.384225 -0.0238212 0
0.375515 -0.0200848 0
0.368178 -0.0162302 0
0.298107 -0.0156319 0
0.289962 -0.0131867 0
0.283121 -0.0106544 0
0.206792 -0.00834811 0
0.199861 -0.00708606 0
0.194054 -0.00578033 0
0.223456 -0.0107368 0
0.214605 -0.00955646 0
0.206792 -0.00834811 0
0.118789 -0.00312726 0
0.113061 -0.00277181 0
0.108062 -0.00241462 0
0 0 0
0 0 0
0 0 0
0.206792 -0.00834811 0
0.199861 -0.00708606 0
0.194054 -0.00578033 0
0.108062 -0.00241462 0
0.103588 -0.00203156 0
0.099882 -0.00164386 0
0 0 0
0 0 0
0 0 0
0.368178 -0.0162302 0
0.362022 -0.0122499 0
0.357265 -0.00817735 0
0.283121 -0.0106544 0
0.277412 -0.00801622 0
0.273063 -0.00529692 0
0.194054 -0.00578033 0
0.189235 -0.00441127 0
0.185623 -0.0029635 0
0.357265 -0.00817735 0
0.35373 -0.00409717 0
0.351562 0 0
0.273063 -0.00529692 0
0.269897 -0.00255217 0
0.268066 0 0
0.185623 -0.0029635 0
0.183051 -0.00149245 0
0.181641 0 0
0.194054 -0.00578033 0
0.189235 -0.00441127 0
0.185623 -0.0029635 0
0.099882 -0.00164386 0
0.0967819 -0.00124252 0
0.0945739 -0.000802186 0
0 0 0
0 0 0
0 0 0
0.185623 -0.0029635 0
0.183051 -0.00149245 0
0.181641 0 0
0.0945739 -0.000802186 0
0.0929972 -0.00030458 0
0.0922852 0 0
0 0 0
0 0 0
0 0 0
1.77255 -0.322042 0
1.73616 -0.357618 0
1.69522 -0.38738 0
1.69715 -0.274969 0
1.66501 -0.307811 0
1.62892 -0.335476 0
1.61764 -0.23575 0
1.59089 -0.265707 0
1.56031 -0.291438 0
1.69522 -0.38738 0
1.65317 -0.409792 0
1.60822 -0.425809 0
1.62892 -0.335476 0
1.59174 -0.35745 0
1.55194 -0.373817 0
1.56031 -0.291438 0
1.52862 -0.312529 0
1.49433 -0.328866 0
1.61764 -0.23575 0
1.59089 -0.265707 0
1.56031 -0.291438 0
1.54384 -0.204803 0
1.52072 -0.230658 0
1.49427 -0.253171 0
1.46675 -0.174495 0
1.44589 -0.197597 0
1.42203 -0.217913 0
1.56031 -0.291438 0
1.52862 -0.312529 0
1.49433 -0.328866 0
1.49427 -0.253171 0
1.46647 -0.271904 0
1.43624 -0.286816 0
1.42203 -0.217913 0
1.39699 -0.235127 0
1.36974 -0.249149 0
1.60822 -0.425809 0
1.56599 -0.435164 0
1.52275 -0.438355 0
1.55194 -0.373817 0
1.51427 -0.38456 0
1.47553 -0.390334 0
1.49433 -0.328866 0
1.46144 -0.340523 0
1.42734 -0.347714 0
1.52275 -0.438355 0
1.48402 -0.436804 0
1.44568 -0.430622 0
1.47553 -0.390334 0
1.44032 -0.391576 0
1.40531 -0.388802 0
1.42734 -0.347714 0
1.39574 -0.350852 0
1.36405 -0.350266 0
1.49433 -0.328866 0
1.46144 -0.340523 0
1.42734 -0.347714 0
1.43624 -0.286816 0
1.40671 -0.297858 0
1.37585 -0.305234 0
1.36974 -0.249149 0
1.34291 -0.259942 0
1.31486 -0.267641 0
1.42734 -0.347714 0
1.39574 -0.350852 0
1.36405 -0.350266 0
1.37585 -0.305234 0
1.34671 -0.309237 0
1.31725 -0.310082 0
1.31486 -0.267641 0
1.28807 -0.272419 0
1.26091 -0.274442 0
1.46675 -0.174495 0
1.44589 -0.197597 0
1.42203 -0.217913 0
1.38784 -0.149429 0
1.36927 -0.169969 0
1.34797 -0.188167 0
1.30957 -0.125708 0
1.29282 -0.143978 0
1.27351 -0.160311 0
1.42203 -0.217913 0
1.39699 -0.235127 0
1.36974 -0.249149 0
1.34797 -0.188167 0
1.32551 -0.203734 0
1.30101 -0.216615 0
1.27351 -0.160311 0
1.25307 -0.174437 0
1.23069 -0.186301 0
1.30957 -0.125708 0
1.29282 -0.143978 0
1.27351 -0.160311 0
1.23023 -0.104908 0
1.21492 -0.120822 0
1.19725 -0.135128 0
1.14891 -0.0852036 0
1.13469 -0.0990732 0
1.11823 -0.111627 0
1.27351 -0.160311 0
1.25307 -0.174437 0
1.23069 -0.186301 0
1.19725 -0.135128 0
1.17843 -0.1476 0
1.15777 -0.158192 0
1.11823 -0.111627 0
1.10069 -0.122667 0
1.0814 -0.132146 0
1.36974 -0.249149 0
1.34291 -0.259942 0
1.31486 -0.267641 0
1.30101 -0.216615 0
1.27667 -0.226752 0
1.25112 -0.234242 0
1.23069 -0.186301 0
1.20826 -0.195829 0
1.18461 -0.203097 0
1.31486 -0.267641 0
1.28807 -0.272419 0
1.26091 -0.274442 0
1.25112 -0.234242 0
1.22644 -0.239212 0
1.2013 -0.241776 0
1.18461 -0.203097 0
1.16155 -0.20818 0
1.13795 -0.211172 0
1.23069 -0.186301 0
1.20826 -0.195829 0
1.18461 -0.203097 0
1.15777 -0.158192 0
1.13689 -0.16684 0
1.11481 -0.173589 0
1.0814 -0.132146 0
1.0618 -0.139999 0
1.04103 -0.146258 0
1.18461 -0.203097 0
1.16155 -0.20818 0
1.13795 -0.211172 0
1.11481 -0.173589 0
1.09308 -0.178502 0
1.07076 -0.181628 0
1.04103 -0.146258 0
1.02044 -0.150958 0
0.999232 -0.154136 0
1.44568 -0.430622 0
1.41277 -0.42147 0
1.38148 -0.408746 0
1.40531 -0.388802 0
1.37487 -0.382669 0
1.3457 -0.373792 0
1.36405 -0.350266 0
1.33583 -0.346642 0
1.3085 -0.340293 0
1.38148 -0.408746 0
1.3547 -0.394596 0
1.33003 -0.378596 0
1.3457 -0.373792 0
1.32032 -0.36292 0
1.29676 -0.35019 0
1.3085 -0.340293 0
1.28414 -0.331827 0
1.26117 -0.321476 0
1.36405 -0.350266 0
1.33583 -0.346642 0
1.3085 -0.340293 0
1.31725 -0.310082 0
1.29049 -0.30825 0
1.26431 -0.303972 0
1.26091 -0.274442 0
1.2359 -0.274054 0
1.21135 -0.271488 0
1.3085 -0.340293 0
1.28414 -0.331827 0
1.26117 -0.321476 0
1.26431 -0.303972 0
1.2406 -0.297787 0
1.21804 -0.289854 0
1.21135 -0.271488 0
1.18884 -0.267123 0
1.16728 -0.261106 0
1.33003 -0.378596 0
1.3095 -0.361962 0
1.29162 -0.34416 0
1.29676 -0.35019 0
1.27689 -0.336214 0
1.2592 -0.321248 0
1.26117 -0.321476 0
1.24124 -0.309827 0
1.22313 -0.29705 0
1.29162 -0.34416 0
1.2765 -0.326601 0
1.26352 -0.309305 0
1.2592 -0.321248 0
1.24383 -0.305715 0
1.23057 -0.28958 0
1.22313 -0.29705 0
1.20702 -0.283604 0
1.19278 -0.269811 0
1.26117 -0.321476 0
1.24124 -0.309827 0
1.22313 -0.29705 0
1.21804 -0.289854 0
1.19823 -0.280654 0
1.18004 -0.270347 0
1.16728 -0.261106 0
1.14807 -0.253808 0
1.13024 -0.24539 0
1.22313 -0.29705 0
1.20702 -0.283604 0
1.19278 -0.269811 0
1.18004 -0.270347 0
1.16373 -0.25929 0
1.14911 -0.247544 0
1.13024 -0.24539 0
1.114 -0.23609 0
1.0992 -0.226041 0
1.26091 -0.274442 0
1.2359 -0.274054 0
1.21135 -0.271488 0
1.2013 -0.241776 0
1.17783 -0.242218 0
1.15462 -0.240718 0
1.13795 -0.211172 0
1.11563 -0.212285 0
1.09343 -0.211675 0
1.21135 -0.271488 0
1.18884 -0.267123 0
1.16728 -0.261106 0
1.15462 -0.240718 0
1.13304 -0.237588 0
1.11218 -0.232928 0
1.09343 -0.211675 0
1.07255 -0.209583 0
1.05225 -0.206107 0
1.13795 -0.211172 0
1.11563 -0.212285 0
1.09343 -0.211675 0
1.07076 -0.181628 0
1.04941 -0.183148 0
1.02809 -0.183164 0
0.999232 -0.154136 0
0.978759 -0.155924 0
0.958214 -0.156414 0
1.09343 -0.211675 0
1.07255 -0.209583 0
1.05225 -0.206107 0
1.02809 -0.183164 0
1.00783 -0.181879 0
0.988034 -0.179361 0
0.958214 -0.156414 0
0.938527 -0.155757 0
0.919179 -0.154012 0
1.16728 -0.261106 0
1.14807 -0.253808 0
1.13024 -0.24539 0
1.11218 -0.232928 0
1.09328 -0.227069 0
1.07553 -0.220171 0
1.05225 -0.206107 0
1.03363 -0.201523 0
1.016 -0.195968 0
1.13024 -0.24539 0
1.114 -0.23609 0
1.0992 -0.226041 0
1.07553 -0.220171 0
1.05919 -0.212468 0
1.04413 -0.204005 0
1.016 -0.195968 0
0.999664 -0.189614 0
0.984486 -0.182518 0
1.05225 -0.206107 0
1.03363 -0.201523 0
1.016 -0.195968 0
0.988034 -0.179361 0
0.969646 -0.175835 0
0.9521 -0.171408 0
0.919179 -0.154012 0
0.901009 -0.15136 0
0.883555 -0.147901 0
1.016 -0.195968 0
0.999664 -0.189614 0
0.984486 -0.182518 0
0.9521 -0.171408 0
0.935679 -0.166232 0
0.920271 -0.160366 0
0.883555 -0.147901 0
0.867103 -0.143759 0
0.851571 -0.138979 0
1.14891 -0.0852036 0
1.13469 -0.0990732 0
1.11823 -0.111627 0
1.06606 -0.0680202 0
1.05275 -0.0798676 0
1.03735 -0.0906377 0
0.980435 -0.0514305 0
0.967923 -0.0614333 0
0.953368 -0.0705721 0
1.11823 -0.111627 0
1.10069 -0.122667 0
1.0814 -0.132146 0
1.03735 -0.0906377 0
1.02087 -0.100158 0
1.00272 -0.108387 0
0.953368 -0.0705721 0
0.937765 -0.078701 0
0.920531 -0.0857797 0
0.980435 -0.0514305 0
0.967923 -0.0614333 0
0.953368 -0.0705721 0
0.889374 -0.0367198 0
0.877853 -0.0448557 0
0.864314 -0.0523198 0
0.787541 -0.0232139 0
0.777512 -0.0295095 0
0.765382 -0.0353224 0
0.953368 -0.0705721 0
0.937765 -0.078701 0
0.920531 -0.0857797 0
0.864314 -0.0523198 0
0.849687 -0.0589891 0
0.833427 -0.0648311 0
0.765382 -0.0353224 0
0.752102 -0.0405552 0
0.737134 -0.0451731 0
1.0814 -0.132146 0
1.0618 -0.139999 0
1.04103 -0.146258 0
1.00272 -0.108387 0
0.98417 -0.115267 0
0.964458 -0.120818 0
0.920531 -0.0857797 0
0.902824 -0.0917576 0
0.883968 -0.096646 0
1.04103 -0.146258 0
1.02044 -0.150958 0
0.999232 -0.154136 0
0.964458 -0.120818 0
0.944791 -0.125069 0
0.924472 -0.128042 0
0.883968 -0.096646 0
0.865055 -0.100464 0
0.84547 -0.103225 0
0.920531 -0.0857797 0
0.902824 -0.0917576 0
0.883968 -0.096646 0
0.833427 -0.0648311 0
0.81661 -0.0698026 0
0.798621 -0.0739068 0
0.737134 -0.0451731 0
0.721504 -0.0491419 0
0.70465 -0.0524557 0
0.883968 -0.096646 0
0.865055 -0.100464 0
0.84547 -0.103225 0
0.798621 -0.0739068 0
0.780476 -0.0771592 0
0.761619 -0.0795638 0
0.70465 -0.0524557 0
0.68753 -0.0551276 0
0.669644 -0.0571517 0
0.787541 -0.0232139 0
0.777512 -0.0295095 0
0.765382 -0.0353224 0
0.665451 -0.0125064 0
0.657881 -0.016872 0
0.648134 -0.0209312 0
0.507554 -0.00431738 0
0.503313 -0.00675893 0
0.49695 -0.00905238 0
0.765382 -0.0353224 0
0.752102 -0.0405552 0
0.737134 -0.0451731 0
0.648134 -0.0209312 0
0.637117 -0.0246121 0
0.624316 -0.0278825 0
0.49695 -0.00905238 0
0.489286 -0.0111584 0
0.479859 -0.013049 0
0.507554 -0.00431738 0
0.503313 -0.00675893 0
0.49695 -0.00905238 0
0.293735 -0.000976877 0
0.292747 -0.0017405 0
0.290097 -0.00245977 0
0 0 0
0 0 0
0 0 0
0.49695 -0.00905238 0
0.489286 -0.0111584 0
0.479859 -0.013049 0
0.290097 -0.00245977 0
0.286566 -0.00312516 0
0.28159 -0.00371548 0
0 0 0
0 0 0
0 0 0
0.737134 -0.0451731 0
0.721504 -0.0491419 0
0.70465 -0.0524557 0
0.624316 -0.0278825 0
0.610708 -0.0307186 0
0.595772 -0.0331064 0
0.479859 -0.013049 0
0.469518 -0.0147168 0
0.457831 -0.0161385 0
0.70465 -0.0524557 0
0.68753 -0.0551276 0
0.669644 -0.0571517 0
0.595772 -0.0331064 0