# vtk DataFile Version 3.0
#This file was generated by the deal.II library on 2025/1/3 at 17:16:07
ASCII
DATASET UNSTRUCTURED_GRID

POINTS 34560 double
1.1 1.1 0
1.03125 1.09531 0
0.9625 1.09063 0
1.09375 1.03125 0
1.02539 1.02686 0
0.957031 1.02246 0
1.0875 0.9625 0
1.01953 0.958398 0
0.951563 0.954297 0
0.9625 1.09063 0
0.89375 1.08594 0
0.825 1.08125 0
0.957031 1.02246 0
0.888672 1.01807 0
0.820312 1.01367 0
0.951563 0.954297 0
0.883594 0.950195 0
0.815625 0.946094 0
1.0875 0.9625 0
1.01953 0.958398 0
0.951563 0.954297 0
1.08125 0.89375 0
1.01367 0.889941 0
0.946094 0.886133 0
1.075 0.825 0
1.00781 0.821484 0
0.940625 0.817969 0
0.951563 0.954297 0
0.883594 0.950195 0
0.815625 0.946094 0
0.946094 0.886133 0
0.878516 0.882324 0
0.810938 0.878516 0
0.940625 0.817969 0
0.873438 0.814453 0
0.80625 0.810937 0
0.825 1.08125 0
0.75625 1.07656 0
0.6875 1.07187 0
0.820312 1.01367 0
0.751953 1.00928 0
0.683594 1.00488 0
0.815625 0.946094 0
0.747656 0.941992 0
0.679688 0.937891 0
0.6875 1.07187 0
0.61875 1.06719 0
0.55 1.0625 0
0.683594 1.00488 0
0.615234 1.00049 0
0.546875 0.996094 0
0.679688 0.937891 0
0.611719 0.933789 0
0.54375 0.929688 0
0.815625 0.946094 0
0.747656 0.941992 0
0.679688 0.937891 0
0.810938 0.878516 0
0.743359 0.874707 0
0.675781 0.870898 0
0.80625 0.810937 0
0.739063 0.807422 0
0.671875 0.803906 0
0.679688 0.937891 0
0.611719 0.933789 0
0.54375 0.929688 0
0.675781 0.870898 0
0.608203 0.86709 0
0.540625 0.863281 0
0.671875 0.803906 0
0.604688 0.800391 0
0.5375 0.796875 0
1.075 0.825 0
1.00781 0.821484 0
0.940625 0.817969 0
1.06875 0.75625 0
1.00195 0.753027 0
0.935156 0.749805 0
1.0625 0.6875 0
0.996094 0.68457 0
0.929688 0.681641 0
0.940625 0.817969 0
0.873438 0.814453 0
0.80625 0.810937 0
0.935156 0.749805 0
0.868359 0.746582 0
0.801563 0.743359 0
0.929688 0.681641 0
0.863281 0.678711 0
0.796875 0.675781 0
1.0625 0.6875 0
0.996094 0.68457 0
0.929688 0.681641 0
1.05625 0.61875 0
0.990234 0.616113 0
0.924219 0.613477 0
1.05 0.55 0
0.984375 0.547656 0
0.91875 0.545313 0
0.929688 0.681641 0
0.863281 0.678711 0
0.796875 0.675781 0
0.924219 0.613477 0
0.858203 0.61084 0
0.792188 0.608203 0
0.91875 0.545313 0
0.853125 0.542969 0
0.7875 0.540625 0
0.80625 0.810937 0
0.739063 0.807422 0
0.671875 0.803906 0
0.801563 0.743359 0
0.734766 0.740137 0
0.667969 0.736914 0
0.796875 0.675781 0
0.730469 0.672852 0
0.664062 0.669922 0
0.671875 0.803906 0
0.604688 0.800391 0
0.5375 0.796875 0
0.667969 0.736914 0
0.601172 0.733691 0
0.534375 0.730469 0
0.664062 0.669922 0
0.597656 0.666992 0
0.53125 0.664062 0
0.796875 0.675781 0
0.730469 0.672852 0
0.664062 0.669922 0
0.792188 0.608203 0
0.726172 0.605566 0
0.660156 0.60293 0
0.7875 0.540625 0
0.721875 0.538281 0
0.65625 0.535937 0
0.664062 0.669922 0
0.597656 0.666992 0
0.53125 0.664062 0
0.660156 0.60293 0
0.594141 0.600293 0
0.528125 0.597656 0
0.65625 0.535937 0
0.590625 0.533594 0
0.525 0.53125 0
0.55 1.0625 0
0.48125 1.05781 0
0.4125 1.05313 0
0.546875 0.996094 0
0.478516 0.991699 0
0.410156 0.987305 0
0.54375 0.929688 0
0.475781 0.925586 0
0.407813 0.921484 0
0.4125 1.05313 0
0.34375 1.04844 0
0.275 1.04375 0
0.410156 0.987305 0
0.341797 0.98291 0
0.273438 0.978516 0
0.407813 0.921484 0
0.339844 0.917383 0
0.271875 0.913281 0
0.54375 0.929688 0
0.475781 0.925586 0
0.407813 0.921484 0
0.540625 0.863281 0
0.473047 0.859473 0
0.405469 0.855664 0
0.5375 0.796875 0
0.470313 0.793359 0
0.403125 0.789844 0
0.407813 0.921484 0
0.339844 0.917383 0
0.271875 0.913281 0
0.405469 0.855664 0
0.337891 0.851855 0
0.270313 0.848047 0
0.403125 0.789844 0
0.335938 0.786328 0
0.26875 0.782813 0
0.275 1.04375 0
0.20625 1.03906 0
0.1375 1.03437 0
0.273438 0.978516 0
0.205078 0.974121 0
0.136719 0.969727 0
0.271875 0.913281 0
0.203906 0.90918 0
0.135938 0.905078 0
0.1375 1.03437 0
0.06875 1.02969 0
0 1.025 0
0.136719 0.969727 0
0.0683594 0.965332 0
0 0.960937 0
0.135938 0.905078 0
0.0679688 0.900977 0
0 0.896875 0
0.271875 0.913281 0
0.203906 0.90918 0
0.135938 0.905078 0
0.270313 0.848047 0
0.202734 0.844238 0
0.135156 0.84043 0
0.26875 0.782813 0
0.201563 0.779297 0
0.134375 0.775781 0
0.135938 0.905078 0
0.0679688 0.900977 0
0 0.896875 0
0.135156 0.84043 0
0.0675781 0.836621 0
0 0.832812 0
0.134375 0.775781 0
0.0671875 0.772266 0
0 0.76875 0
0.5375 0.796875 0
0.470313 0.793359 0
0.403125 0.789844 0
0.534375 0.730469 0
0.467578 0.727246 0
0.400781 0.724023 0
0.53125 0.664062 0
0.464844 0.661133 0
0.398438 0.658203 0
0.403125 0.789844 0
0.335938 0.786328 0
0.26875 0.782813 0
0.400781 0.724023 0
0.333984 0.720801 0
0.267188 0.717578 0
0.398438 0.658203 0
0.332031 0.655273 0
0.265625 0.652344 0
0.53125 0.664062 0
0.464844 0.661133 0
0.398438 0.658203 0
0.528125 0.597656 0
0.462109 0.59502 0
0.396094 0.592383 0
0.525 0.53125 0
0.459375 0.528906 0
0.39375 0.526563 0
0.398438 0.658203 0
0.332031 0.655273 0
0.265625 0.652344 0
0.396094 0.592383 0
0.330078 0.589746 0
0.264062 0.587109 0
0.39375 0.526563 0
0.328125 0.524219 0
0.2625 0.521875 0
0.26875 0.782813 0
0.201563 0.779297 0
0.134375 0.775781 0
0.267188 0.717578 0
0.200391 0.714355 0
0.133594 0.711133 0
0.265625 0.652344 0
0.199219 0.649414 0
0.132812 0.646484 0
0.134375 0.775781 0
0.0671875 0.772266 0
0 0.76875 0
0.133594 0.711133 0
0.0667969 0.70791 0
0 0.704687 0
0.132812 0.646484 0
0.0664062 0.643555 0
0 0.640625 0
0.265625 0.652344 0
0.199219 0.649414 0
0.132812 0.646484 0
0.264062 0.587109 0
0.198047 0.584473 0
0.132031 0.581836 0
0.2625 0.521875 0
0.196875 0.519531 0
0.13125 0.517187 0
0.132812 0.646484 0
0.0664062 0.643555 0
0 0.640625 0
0.132031 0.581836 0
0.0660156 0.579199 0
0 0.576562 0
0.13125 0.517187 0
0.065625 0.514844 0
0 0.5125 0
1.05 0.55 0
0.984375 0.547656 0
0.91875 0.545313 0
1.04375 0.48125 0
0.978516 0.479199 0
0.913281 0.477148 0
1.0375 0.4125 0
0.972656 0.410742 0
0.907813 0.408984 0
0.91875 0.545313 0
0.853125 0.542969 0
0.7875 0.540625 0
0.913281 0.477148 0
0.848047 0.475098 0
0.782813 0.473047 0
0.907813 0.408984 0
0.842969 0.407227 0
0.778125 0.405469 0
1.0375 0.4125 0
0.972656 0.410742 0
0.907813 0.408984 0
1.03125 0.34375 0
0.966797 0.342285 0
0.902344 0.34082 0
1.025 0.275 0
0.960937 0.273828 0
0.896875 0.272656 0
0.907813 0.408984 0
0.842969 0.407227 0
0.778125 0.405469 0
0.902344 0.34082 0
0.837891 0.339355 0
0.773438 0.337891 0
0.896875 0.272656 0
0.832812 0.271484 0
0.76875 0.270313 0
0.7875 0.540625 0
0.721875 0.538281 0
0.65625 0.535937 0
0.782813 0.473047 0
0.717578 0.470996 0
0.652344 0.468945 0
0.778125 0.405469 0
0.713281 0.403711 0
0.648438 0.401953 0
0.65625 0.535937 0
0.590625 0.533594 0
0.525 0.53125 0
0.652344 0.468945 0
0.587109 0.466895 0
0.521875 0.464844 0
0.648438 0.401953 0
0.583594 0.400195 0
0.51875 0.398438 0
0.778125 0.405469 0
0.713281 0.403711 0
0.648438 0.401953 0
0.773438 0.337891 0
0.708984 0.336426 0
0.644531 0.334961 0
0.76875 0.270313 0
0.704687 0.269141 0
0.640625 0.267969 0
0.648438 0.401953 0
0.583594 0.400195 0
0.51875 0.398438 0
0.644531 0.334961 0
0.580078 0.333496 0
0.515625 0.332031 0
0.640625 0.267969 0
0.576562 0.266797 0
0.5125 0.265625 0
1.025 0.275 0
0.960937 0.273828 0
0.896875 0.272656 0
1.01875 0.20625 0
0.955078 0.205371 0
0.891406 0.204492 0
1.0125 0.1375 0
0.949219 0.136914 0
0.885937 0.136328 0
0.896875 0.272656 0
0.832812 0.271484 0
0.76875 0.270313 0
0.891406 0.204492 0
0.827734 0.203613 0
0.764062 0.202734 0
0.885937 0.136328 0
0.822656 0.135742 0
0.759375 0.135156 0
1.0125 0.1375 0
0.949219 0.136914 0
0.885937 0.136328 0
1.00625 0.06875 0
0.943359 0.068457 0
0.880469 0.0681641 0
1 0 0
0.9375 0 0
0.875 0 0
0.885937 0.136328 0
0.822656 0.135742 0
0.759375 0.135156 0
0.880469 0.0681641 0
0.817578 0.0678711 0
0.754687 0.0675781 0
0.875 0 0
0.8125 0 0
0.75 0 0
0.76875 0.270313 0
0.704687 0.269141 0
0.640625 0.267969 0
0.764062 0.202734 0
0.700391 0.201855 0
0.636719 0.200977 0
0.759375 0.135156 0
0.696094 0.13457 0
0.632812 0.133984 0
0.640625 0.267969 0
0.576562 0.266797 0
0.5125 0.265625 0
0.636719 0.200977 0
0.573047 0.200098 0
0.509375 0.199219 0
0.632812 0.133984 0
0.569531 0.133398 0
0.50625 0.132812 0
0.759375 0.135156 0
0.696094 0.13457 0
0.632812 0.133984 0
0.754687 0.0675781 0
0.691797 0.0672852 0
0.628906 0.0669922 0
0.75 0 0
0.6875 0 0
0.625 0 0
0.632812 0.133984 0
0.569531 0.133398 0
0.50625 0.132812 0
0.628906 0.0669922 0
0.566016 0.0666992 0
0.503125 0.0664062 0
0.625 0 0
0.5625 0 0
0.5 0 0
0.525 0.53125 0
0.459375 0.528906 0
0.39375 0.526563 0
0.521875 0.464844 0
0.456641 0.462793 0
0.391406 0.460742 0
0.51875 0.398438 0
0.453906 0.39668 0
0.389063 0.394922 0
0.39375 0.526563 0
0.328125 0.524219 0
0.2625 0.521875 0
0.391406 0.460742 0
0.326172 0.458691 0
0.260938 0.456641 0
0.389063 0.394922 0
0.324219 0.393164 0
0.259375 0.391406 0
0.51875 0.398438 0
0.453906 0.39668 0
0.389063 0.394922 0
0.515625 0.332031 0
0.451172 0.330566 0
0.386719 0.329102 0
0.5125 0.265625 0
0.448437 0.264453 0
0.384375 0.263281 0
0.389063 0.394922 0
0.324219 0.393164 0
0.259375 0.391406 0
0.386719 0.329102 0
0.322266 0.327637 0
0.257812 0.326172 0
0.384375 0.263281 0
0.320312 0.262109 0
0.25625 0.260937 0
0.2625 0.521875 0
0.196875 0.519531 0
0.13125 0.517187 0
0.260938 0.456641 0
0.195703 0.45459 0
0.130469 0.452539 0
0.259375 0.391406 0
0.194531 0.389648 0
0.129688 0.387891 0
0.13125 0.517187 0
0.065625 0.514844 0
0 0.5125 0
0.130469 0.452539 0
0.0652344 0.450488 0
0 0.448437 0
0.129688 0.387891 0
0.0648438 0.386133 0
0 0.384375 0
0.259375 0.391406 0
0.194531 0.389648 0
0.129688 0.387891 0
0.257812 0.326172 0
0.193359 0.324707 0
0.128906 0.323242 0
0.25625 0.260937 0
0.192187 0.259766 0
0.128125 0.258594 0
0.129688 0.387891 0
0.0648438 0.386133 0
0 0.384375 0
0.128906 0.323242 0
0.0644531 0.321777 0
0 0.320312 0
0.128125 0.258594 0
0.0640625 0.257422 0
0 0.25625 0
0.5125 0.265625 0
0.448437 0.264453 0
0.384375 0.263281 0
0.509375 0.199219 0
0.445703 0.19834 0
0.382031 0.197461 0
0.50625 0.132812 0
0.442969 0.132227 0
0.379688 0.131641 0
0.384375 0.263281 0
0.320312 0.262109 0
0.25625 0.260937 0
0.382031 0.197461 0
0.318359 0.196582 0
0.254687 0.195703 0
[...]
POINT_DATA 34560
VECTORS v double
1.2419 -0.274169 0
1.22748 -0.250137 0
1.21479 -0.228485 0
1.20978 -0.257453 0
1.1935 -0.236682 0
1.17928 -0.217016 0
1.17294 -0.240427 0
1.15546 -0.221933 0
1.13963 -0.204196 0
1.21479 -0.228485 0
1.2037 -0.207702 0
1.19413 -0.188561 0
1.17928 -0.217016 0
1.16633 -0.198205 0
1.15528 -0.180522 0
1.13963 -0.204196 0
1.12532 -0.187155 0
1.11269 -0.170891 0
1.17294 -0.240427 0
1.15546 -0.221933 0
1.13963 -0.204196 0
1.13007 -0.220785 0
1.11142 -0.204731 0
1.09445 -0.189185 0
1.08095 -0.201788 0
1.06173 -0.187864 0
1.04401 -0.17421 0
1.13963 -0.204196 0
1.12532 -0.187155 0
1.11269 -0.170891 0
1.09445 -0.189185 0
1.07897 -0.174066 0
1.06516 -0.159515 0
1.04401 -0.17421 0
1.02781 -0.160805 0
1.01316 -0.147776 0
1.19413 -0.188561 0
1.18529 -0.17031 0
1.17772 -0.153175 0
1.15528 -0.180522 0
1.14478 -0.163529 0
1.13591 -0.147449 0
1.11269 -0.170891 0
1.10089 -0.155219 0
1.09064 -0.140214 0
1.17772 -0.153175 0
1.17033 -0.13673 0
1.16396 -0.120983 0
1.13591 -0.147449 0
1.12715 -0.131853 0
1.11972 -0.116869 0
1.09064 -0.140214 0
1.08075 -0.125615 0
1.07221 -0.11148 0
1.11269 -0.170891 0
1.10089 -0.155219 0
1.09064 -0.140214 0
1.06516 -0.159515 0
1.0523 -0.145334 0
1.04097 -0.131655 0
1.01316 -0.147776 0
0.999544 -0.134983 0
0.987407 -0.122546 0
1.09064 -0.140214 0
1.08075 -0.125615 0
1.07221 -0.11148 0
1.04097 -0.131655 0
1.0302 -0.118232 0
1.02077 -0.105147 0
0.987407 -0.122546 0
0.97595 -0.110269 0
0.96583 -0.0982269 0
1.08095 -0.201788 0
1.06173 -0.187864 0
1.04401 -0.17421 0
1.02664 -0.182105 0
1.00706 -0.170161 0
0.988878 -0.158328 0
0.967604 -0.162873 0
0.947901 -0.152653 0
0.929441 -0.142434 0
1.04401 -0.17421 0
1.02781 -0.160805 0
1.01316 -0.147776 0
0.988878 -0.158328 0
0.972149 -0.14659 0
0.956882 -0.135092 0
0.929441 -0.142434 0
0.912373 -0.132227 0
0.896663 -0.122154 0
0.967604 -0.162873 0
0.947901 -0.152653 0
0.929441 -0.142434 0
0.903828 -0.142931 0
0.88411 -0.134345 0
0.865552 -0.125707 0
0.835411 -0.123699 0
0.815899 -0.116557 0
0.797431 -0.109323 0
0.929441 -0.142434 0
0.912373 -0.132227 0
0.896663 -0.122154 0
0.865552 -0.125707 0
0.8483 -0.117015 0
0.832332 -0.108385 0
0.797431 -0.109323 0
0.780188 -0.102001 0
0.764135 -0.0946933 0
1.01316 -0.147776 0
0.999544 -0.134983 0
0.987407 -0.122546 0
0.956882 -0.135092 0
0.94269 -0.123717 0
0.929921 -0.112584 0
0.896663 -0.122154 0
0.882054 -0.112128 0
0.868806 -0.102254 0
0.987407 -0.122546 0
0.97595 -0.110269 0
0.96583 -0.0982269 0
0.929921 -0.112584 0
0.917937 -0.101524 0
0.907272 -0.0906124 0
0.868806 -0.102254 0
0.856424 -0.092394 0
0.845337 -0.0826135 0
0.896663 -0.122154 0
0.882054 -0.112128 0
0.868806 -0.102254 0
0.832332 -0.108385 0
0.817457 -0.0997368 0
0.803891 -0.091171 0
0.764135 -0.0946933 0
0.749151 -0.0873328 0
0.735412 -0.0800084 0
0.868806 -0.102254 0
0.856424 -0.092394 0
0.845337 -0.0826135 0
0.803891 -0.091171 0
0.79124 -0.0825651 0
0.779862 -0.0739826 0
0.735412 -0.0800084 0
0.722615 -0.0726152 0
0.711058 -0.0652071 0
1.16396 -0.120983 0
1.15766 -0.105637 0
1.15218 -0.0906394 0
1.11972 -0.116869 0
1.11236 -0.102148 0
1.10608 -0.0877471 0
1.07221 -0.11148 0
1.06395 -0.0975481 0
1.05685 -0.0838568 0
1.15218 -0.0906394 0
1.14663 -0.0757743 0
1.14174 -0.0609681 0
1.10608 -0.0877471 0
1.09977 -0.0733944 0
1.09435 -0.0590929 0
1.05685 -0.0838568 0
1.0499 -0.070178 0
1.04393 -0.0565122 0
1.07221 -0.11148 0
1.06395 -0.0975481 0
1.05685 -0.0838568 0
1.02077 -0.105147 0
1.01181 -0.0921701 0
1.00405 -0.0793555 0
0.96583 -0.0982269 0
0.956322 -0.0862304 0
0.94803 -0.0743292 0
1.05685 -0.0838568 0
1.0499 -0.070178 0
1.04393 -0.0565122 0
1.00405 -0.0793555 0
0.996621 -0.0664992 0
0.990231 -0.0536068 0
0.94803 -0.0743292 0
0.940211 -0.0623484 0
0.933483 -0.0502957 0
1.14174 -0.0609681 0
1.13695 -0.0460546 0
1.13276 -0.0309705 0
1.09435 -0.0590929 0
1.0891 -0.0446546 0
1.08464 -0.0300569 0
1.04393 -0.0565122 0
1.03829 -0.0426945 0
1.03356 -0.0287181 0
1.13276 -0.0309705 0
1.12861 -0.0156242 0
1.125 0 0
1.08464 -0.0300569 0
1.0803 -0.0151886 0
1.07666 0 0
1.03356 -0.0287181 0
1.02906 -0.0144864 0
1.02539 0 0
1.04393 -0.0565122 0
1.03829 -0.0426945 0
1.03356 -0.0287181 0
0.990231 -0.0536068 0
0.984319 -0.0405349 0
0.97938 -0.027293 0
0.933483 -0.0502957 0
0.927355 -0.038051 0
0.922261 -0.025624 0
1.03356 -0.0287181 0
1.02906 -0.0144864 0
1.02539 0 0
0.97938 -0.027293 0
0.974835 -0.0137916 0
0.971191 0 0
0.922261 -0.025624 0
0.917677 -0.0129417 0
0.914062 0 0
0.96583 -0.0982269 0
0.956322 -0.0862304 0
0.94803 -0.0743292 0
0.907272 -0.0906124 0
0.897334 -0.079685 0
0.888623 -0.0687928 0
0.845337 -0.0826135 0
0.835068 -0.0727747 0
0.826035 -0.0629232 0
0.94803 -0.0743292 0
0.940211 -0.0623484 0
0.933483 -0.0502957 0
0.888623 -0.0687928 0
0.880514 -0.0577829 0
0.873534 -0.0466673 0
0.826035 -0.0629232 0
0.81771 -0.0529286 0
0.810546 -0.0428006 0
0.845337 -0.0826135 0
0.835068 -0.0727747 0
0.826035 -0.0629232 0
0.779862 -0.0739826 0
0.76937 -0.0653009 0
0.760117 -0.0565653 0
0.711058 -0.0652071 0
0.700434 -0.057678 0
0.691045 -0.0500666 0
0.826035 -0.0629232 0
0.81771 -0.0529286 0
0.810546 -0.0428006 0
0.760117 -0.0565653 0
0.751658 -0.0476591 0
0.744387 -0.038595 0
0.691045 -0.0500666 0
0.682518 -0.0422719 0
0.675198 -0.0343028 0
0.933483 -0.0502957 0
0.927355 -0.038051 0
0.922261 -0.025624 0
0.873534 -0.0466673 0
0.867261 -0.0353397 0
0.862079 -0.0238157 0
0.810546 -0.0428006 0
0.804181 -0.0324496 0
0.798953 -0.0218913 0
0.922261 -0.025624 0
0.917677 -0.0129417 0
0.914062 0 0
0.862079 -0.0238157 0
0.857522 -0.012036 0
0.854004 0 0
0.798953 -0.0218913 0
0.794441 -0.0110785 0
0.791016 0 0
0.810546 -0.0428006 0
0.804181 -0.0324496 0
0.798953 -0.0218913 0
0.744387 -0.038595 0
0.737992 -0.0292936 0
0.732775 -0.0197753 0
0.675198 -0.0343028 0
0.668819 -0.0260915 0
0.663653 -0.0176552 0
0.798953 -0.0218913 0
0.794441 -0.0110785 0
0.791016 0 0
0.732775 -0.0197753 0
0.728363 -0.010003 0
0.725098 0 0
0.663653 -0.0176552 0
0.659361 -0.00896604 0
0.65625 0 0
0.835411 -0.123699 0
0.815899 -0.116557 0
0.797431 -0.109323 0
0.762667 -0.104236 0
0.743446 -0.0984089 0
0.725195 -0.0924865 0
0.68535 -0.085443 0
0.666593 -0.0808112 0
0.648721 -0.0760862 0
0.797431 -0.109323 0
0.780188 -0.102001 0
0.764135 -0.0946933 0
0.725195 -0.0924865 0
0.708072 -0.0864659 0
0.692069 -0.0804384 0
0.648721 -0.0760862 0
0.631894 -0.0712666 0
0.616109 -0.0664311 0
0.68535 -0.085443 0
0.666593 -0.0808112 0
0.648721 -0.0760862 0
0.60324 -0.0666826 0
0.58508 -0.0631452 0
0.567759 -0.0595348 0
0.515053 -0.0488193 0
0.497815 -0.0462971 0
0.481353 -0.0437176 0
0.648721 -0.0760862 0
0.631894 -0.0712666 0
0.616109 -0.0664311 0
0.567759 -0.0595348 0
0.551397 -0.0558432 0
0.536016 -0.0521383 0
0.481353 -0.0437176 0
0.465769 -0.0410711 0
0.451094 -0.0384162 0
0.764135 -0.0946933 0
0.749151 -0.0873328 0
0.735412 -0.0800084 0
0.692069 -0.0804384 0
0.677094 -0.0743436 0
0.663308 -0.0682587 0
0.616109 -0.0664311 0
0.601305 -0.0615265 0
0.587622 -0.0566196 0
0.735412 -0.0800084 0
0.722615 -0.0726152 0
0.711058 -0.0652071 0
0.663308 -0.0682587 0
0.65047 -0.0620893 0
0.638839 -0.0558815 0
0.587622 -0.0566196 0
0.574875 -0.0516274 0
0.56329 -0.0465872 0
0.616109 -0.0664311 0
0.601305 -0.0615265 0
0.587622 -0.0566196 0
0.536016 -0.0521383 0
0.521554 -0.0483717 0
0.508151 -0.0446015 0
0.451094 -0.0384162 0
0.437268 -0.0357107 0
0.424422 -0.0330039 0
0.587622 -0.0566196 0
0.574875 -0.0516274 0
0.56329 -0.0465872 0
0.508151 -0.0446015 0
0.495648 -0.0407551 0
0.484256 -0.036863 0
0.424422 -0.0330039 0
0.412421 -0.0302356 0
0.401457 -0.0274324 0
0.515053 -0.0488193 0
0.497815 -0.0462971 0
0.481353 -0.0437176 0
0.418745 -0.0317135 0
0.402915 -0.0300967 0
0.387809 -0.028446 0
0.30862 -0.0165005 0
0.295342 -0.015693 0
0.282655 -0.01487 0
0.481353 -0.0437176 0
0.465769 -0.0410711 0
0.451094 -0.0384162 0
0.387809 -0.028446 0
0.373475 -0.026746 0
0.359976 -0.025045 0
0.282655 -0.01487 0
0.2706 -0.0140122 0
0.25924 -0.0131566 0
0.30862 -0.0165005 0
0.295342 -0.015693 0
0.282655 -0.01487 0
0.174727 -0.00487429 0
0.166077 -0.00462405 0
0.157842 -0.00438022 0
0 0 0
0 0 0
0 0 0
0.282655 -0.01487 0
0.2706 -0.0140122 0
0.25924 -0.0131566 0
0.157842 -0.00438022 0
0.149979 -0.00412056 0
0.142598 -0.00387337 0
0 0 0
0 0 0
0 0 0
0.451094 -0.0384162 0
0.437268 -0.0357107 0
0.424422 -0.0330039 0
0.359976 -0.025045 0
0.347232 -0.023306 0
0.335379 -0.0215699 0
0.25924 -0.0131566 0
0.248498 -0.0122714 0
0.238499 -0.0113909 0
0.424422 -0.0330039 0
0.412421 -0.0302356 0
0.401457 -0.0274324 0
0.335379 -0.0215699 0
0.324284 -0.019788 0
0.31413 -0.0179862 0
0.238499 -0.0113909 0
0.229124 -0.0104802 0
0.220535 -0.00956377 0
0.25924 -0.0131566 0
0.248498 -0.0122714 0
0.238499 -0.0113909 0
0.142598 -0.00387337 0
0.135585 -0.00360615 0
0.129086 -0.00335024 0
0 0 0
0 0 0
0 0 0
0.238499 -0.0113909 0
0.229124 -0.0104802 0
0.220535 -0.00956377 0
0.129086 -0.00335024 0
0.122959 -0.00307464 0
0.117379 -0.00280711 0
0 0 0
0 0 0
0 0 0
0.711058 -0.0652071 0
0.700434 -0.057678 0
0.691045 -0.0500666 0
0.638839 -0.0558815 0
0.628167 -0.0495394 0
0.618722 -0.043097 0
0.56329 -0.0465872 0
0.552668 -0.0414139 0
0.543252 -0.0361354 0
0.691045 -0.0500666 0
0.682518 -0.0422719 0
0.675198 -0.0343028 0
0.618722 -0.043097 0
0.61019 -0.0364622 0
0.602881 -0.0296427 0
0.543252 -0.0361354 0
0.534782 -0.030669 0
0.527539 -0.0250169 0
0.56329 -0.0465872 0
0.552668 -0.0414139 0
0.543252 -0.0361354 0
0.484256 -0.036863 0
0.473804 -0.0328492 0
0.464523 -0.0287376 0
0.401457 -0.0274324 0
0.391381 -0.0245304 0
0.382413 -0.0215481 0
0.543252 -0.0361354 0
0.534782 -0.030669 0
0.527539 -0.0250169 0
0.464523 -0.0287376 0
0.456198 -0.0244533 0
0.449092 -0.0199934 0
0.382413 -0.0215481 0
0.374378 -0.0184202 0
0.367527 -0.0151408 0
0.675198 -0.0343028 0
0.668819 -0.0260915 0
0.663653 -0.0176552 0
0.602881 -0.0296427 0
0.596565 -0.0225776 0
0.591494 -0.0152862 0
0.527539 -0.0250169 0
0.521327 -0.0191251 0
0.516387 -0.0130084 0
0.663653 -0.0176552 0
0.659361 -0.00896604 0
0.65625 0 0
0.591494 -0.0152862 0
0.587367 -0.00774537 0
0.584473 0 0
0.516387 -0.0130084 0
0.512446 -0.00664951 0
0.509766 0 0
0.527539 -0.0250169 0
0.521327 -0.0191251 0
0.516387 -0.0130084 0
0.449092 -0.0199934 0
0.443033 -0.0153071 0
0.438258 -0.0104147 0
0.367527 -0.0151408 0
0.361709 -0.0116635 0
0.357164 -0.00799496 0
0.516387 -0.0130084 0
0.512446 -0.00664951 0
0.509766 0 0
0.438258 -0.0104147 0
0.434539 -0.00529598 0
0.432129 0 0
0.357164 -0.00799496 0
0.353702 -0.00413263 0
0.351562 0 0
0.401457 -0.0274324 0
0.391381 -0.0245304 0
0.382413 -0.0215481 0
0.31413 -0.0179862 0
0.304775 -0.0161131 0
0.296434 -0.0141859 0
0.220535 -0.00956377 0
0.212602 -0.00860591 0
0.205517 -0.00762154 0
0.382413 -0.0215481 0
0.374378 -0.0184202 0
0.367527 -0.0151408 0
0.296434 -0.0141859 0
0.288953 -0.0121522 0
0.282581 -0.010008 0
0.205517 -0.00762154 0
0.19915 -0.00657594 0
0.193728 -0.00547372 0
0.220535 -0.00956377 0
0.212602 -0.00860591 0
0.205517 -0.00762154 0
0.117379 -0.00280711 0
0.112188 -0.0025202 0
0.107591 -0.00223121 0
0 0 0
0 0 0
0 0 0
0.205517 -0.00762154 0
0.19915 -0.00657594 0
0.193728 -0.00547372 0
0.107591 -0.00223121 0
0.103417 -0.00191275 0
0.0998924 -0.00158489 0
0 0 0
0 0 0
0 0 0
0.367527 -0.0151408 0
0.361709 -0.0116635 0
0.357164 -0.00799496 0
0.282581 -0.010008 0
0.277181 -0.00770713 0
0.273008 -0.005258 0
0.193728 -0.00547372 0
0.189143 -0.00428189 0
0.185638 -0.00297736 0
0.357164 -0.00799496 0
0.353702 -0.00413263 0
0.351562 0 0
0.273008 -0.005258 0
0.269887 -0.00264771 0
0.268066 0 0
0.185638 -0.00297736 0
0.183066 -0.00157233 0
0.181641 0 0
0.193728 -0.00547372 0
0.189143 -0.00428189 0
0.185638 -0.00297736 0
0.0998924 -0.00158489 0
0.0968771 -0.00123355 0
0.0946745 -0.000833797 0
0 0 0
0 0 0
0 0 0
0.185638 -0.00297736 0
0.183066 -0.00157233 0
0.181641 0 0
0.0946745 -0.000833797 0
0.0930371 -0.000351268 0
0.0922852 0 0
0 0 0
0 0 0
0 0 0
1.71087 -0.321557 0
1.67622 -0.352105 0
1.63721 -0.377214 0
1.63909 -0.276782 0
1.6085 -0.304857 0
1.57414 -0.328078 0
1.56363 -0.239436 0
1.53814 -0.264908 0
1.50902 -0.286416 0
1.63721 -0.377214 0
1.59741 -0.395362 0
1.55484 -0.407499 0
1.57414 -0.328078 0
1.53902 -0.345968 0
1.50141 -0.358611 0
1.50902 -0.286416 0
1.47913 -0.3036 0
1.4468 -0.316341 0
1.56363 -0.239436 0
1.53814 -0.264908 0
1.50902 -0.286416 0
1.493 -0.209571 0
1.4709 -0.231269 0
1.44569 -0.249847 0
1.41882 -0.180466 0
1.3988 -0.199677 0
1.37602 -0.21631 0
1.50902 -0.286416 0
1.47913 -0.3036 0
1.4468 -0.316341 0
1.44569 -0.249847 0
1.41945 -0.264925 0
1.39095 -0.276461 0
1.37602 -0.21631 0
1.35234 -0.230096 0
1.32666 -0.240945 0
1.55484 -0.407499 0
1.51517 -0.413407 0
1.47457 -0.413569 0
1.50141 -0.358611 0
1.4661 -0.366012 0
1.42981 -0.368821 0
1.4468 -0.316341 0
1.41603 -0.324746 0
1.38415 -0.329032 0
1.47457 -0.413569 0
1.43852 -0.409385 0
1.40295 -0.400946 0
1.42981 -0.368821 0
1.39713 -0.367469 0
1.36472 -0.362464 0
1.38415 -0.329032 0
1.35487 -0.32961 0
1.32557 -0.326808 0
1.4468 -0.316341 0
1.41603 -0.324746 0
1.38415 -0.329032 0
1.39095 -0.276461 0
1.36332 -0.284443 0
1.33448 -0.289064 0
1.32666 -0.240945 0
1.30157 -0.248843 0
1.27541 -0.253923 0
1.38415 -0.329032 0
1.35487 -0.32961 0
1.32557 -0.326808 0
1.33448 -0.289064 0
1.30749 -0.290628 0
1.28026 -0.289355 0
1.27541 -0.253923 0
1.25063 -0.256371 0
1.2256 -0.256358 0
1.41882 -0.180466 0
1.3988 -0.199677 0
1.37602 -0.21631 0
1.34271 -0.156163 0
1.32477 -0.17309 0
1.30437 -0.187861 0
1.26679 -0.133065 0
1.25047 -0.148013 0
1.23186 -0.161181 0
1.37602 -0.21631 0
1.35234 -0.230096 0
1.32666 -0.240945 0
1.30437 -0.187861 0
1.2831 -0.200225 0
1.26 -0.210129 0
1.23186 -0.161181 0
1.21242 -0.17234 0
1.19127 -0.181435 0
1.26679 -0.133065 0
1.25047 -0.148013 0
1.23186 -0.161181 0
1.18962 -0.112482 0
1.17449 -0.125392 0
1.1573 -0.136833 0
1.11032 -0.092838 0
1.09604 -0.104031 0
1.07986 -0.114025 0
1.23186 -0.161181 0
1.21242 -0.17234 0
1.19127 -0.181435 0
1.1573 -0.136833 0
1.13928 -0.146613 0
1.11966 -0.154683 0
1.07986 -0.114025 0
1.0629 -0.122653 0
1.04447 -0.129864 0
1.32666 -0.240945 0
1.30157 -0.248843 0
1.27541 -0.253923 0
1.26 -0.210129 0
1.23725 -0.217541 0
1.21343 -0.222552 0
1.19127 -0.181435 0
1.17026 -0.188418 0
1.14822 -0.193359 0
1.27541 -0.253923 0
1.25063 -0.256371 0
1.2256 -0.256358 0
1.21343 -0.222552 0
1.19063 -0.225307 0
1.16747 -0.225925 0
1.14822 -0.193359 0
1.12691 -0.196354 0
1.10518 -0.197502 0
1.19127 -0.181435 0
1.17026 -0.188418 0
1.14822 -0.193359 0
1.11966 -0.154683 0
1.10005 -0.161004 0
1.07944 -0.165616 0
1.04447 -0.129864 0
1.02596 -0.135614 0
1.00651 -0.139933 0
1.14822 -0.193359 0
1.12691 -0.196354 0
1.10518 -0.197502 0
1.07944 -0.165616 0
1.05934 -0.168599 0
1.03879 -0.170009 0
1.00651 -0.139933 0
0.98741 -0.142869 0
0.967867 -0.144467 0
1.40295 -0.400946 0
1.37276 -0.389915 0
1.34426 -0.375725 0
1.36472 -0.362464 0
1.33685 -0.354453 0
1.31029 -0.344063 0
1.32557 -0.326808 0
1.29972 -0.321304 0
1.2748 -0.313426 0
1.34426 -0.375725 0
1.32019 -0.360419 0
1.29826 -0.343623 0
1.31029 -0.344063 0
1.28747 -0.331997 0
1.26647 -0.318406 0
1.2748 -0.313426 0
1.25283 -0.303755 0
1.23226 -0.292532 0
1.32557 -0.326808 0
1.29972 -0.321304 0
1.2748 -0.313426 0
1.28026 -0.289355 0
1.25576 -0.285722 0
1.23188 -0.279965 0
1.2256 -0.256358 0
1.20274 -0.254219 0
1.18038 -0.250194 0
1.2748 -0.313426 0
1.25283 -0.303755 0
1.23226 -0.292532 0
1.23188 -0.279965 0
1.21048 -0.272595 0
1.19026 -0.263795 0
1.18038 -0.250194 0
1.16007 -0.244647 0
1.14072 -0.237741 0
1.29826 -0.343623 0
1.28036 -0.326497 0
1.26509 -0.308564 0
1.26647 -0.318406 0
1.24906 -0.30387 0
1.2338 -0.288685 0
1.23226 -0.292532 0
1.21465 -0.28032 0
1.19884 -0.267313 0
1.26509 -0.308564 0
1.25246 -0.291099 0
1.2419 -0.274169 0
1.2338 -0.288685 0
1.22075 -0.273218 0
1.20978 -0.257453 0
1.19884 -0.267313 0
1.18499 -0.253911 0
1.17294 -0.240427 0
1.23226 -0.292532 0
1.21465 -0.28032 0
1.19884 -0.267313 0
1.19026 -0.263795 0
1.17269 -0.254012 0
1.15672 -0.243411 0
1.14072 -0.237741 0
1.12365 -0.229818 0
1.10793 -0.221053 0
1.19884 -0.267313 0
1.18499 -0.253911 0
1.17294 -0.240427 0
1.15672 -0.243411 0
1.14258 -0.232305 0
1.13007 -0.220785 0
1.10793 -0.221053 0
1.09374 -0.211661 0
1.08095 -0.201788 0
1.2256 -0.256358 0
1.20274 -0.254219 0
1.18038 -0.250194 0
1.16747 -0.225925 0
1.14603 -0.224688 0
1.12489 -0.221782 0
1.10518 -0.197502 0
1.08479 -0.197016 0
1.0646 -0.195057 0
1.18038 -0.250194 0
1.16007 -0.244647 0
1.14072 -0.237741 0
1.12489 -0.221782 0
1.10539 -0.217508 0
1.08665 -0.211981 0
1.0646 -0.195057 0
1.04575 -0.191858 0
1.02751 -0.18753 0
1.10518 -0.197502 0
1.08479 -0.197016 0
1.0646 -0.195057 0
1.03879 -0.170009 0
1.0193 -0.170027 0
0.999913 -0.168764 0
0.967867 -0.144467 0
0.949149 -0.144864 0
0.93047 -0.144155 0
1.0646 -0.195057 0
1.04575 -0.191858 0
1.02751 -0.18753 0
0.999913 -0.168764 0
0.981635 -0.166419 0
0.963847 -0.163071 0
0.93047 -0.144155 0
0.9127 -0.142494 0
0.895321 -0.13995 0
1.14072 -0.237741 0
1.12365 -0.229818 0
1.10793 -0.221053 0
1.08665 -0.211981 0
1.06981 -0.205509 0
1.05409 -0.198261 0
1.02751 -0.18753 0
1.01091 -0.182329 0
0.995276 -0.1764 0
1.10793 -0.221053 0
1.09374 -0.211661 0
1.08095 -0.201788 0
1.05409 -0.198261 0
1.03975 -0.190439 0
1.02664 -0.182105 0
0.995276 -0.1764 0
0.980889 -0.169891 0
0.967604 -0.162873 0
1.02751 -0.18753 0
1.01091 -0.182329 0
0.995276 -0.1764 0
0.963847 -0.163071 0
0.947439 -0.158931 0
0.931861 -0.154116 0
0.895321 -0.13995 0
0.879108 -0.136695 0
0.863606 -0.132838 0
0.995276 -0.1764 0
0.980889 -0.169891 0
0.967604 -0.162873 0
0.931861 -0.154116 0
0.917365 -0.148761 0
0.903828 -0.142931 0
0.863606 -0.132838 0
0.849075 -0.128488 0
0.835411 -0.123699 0
1.11032 -0.092838 0
1.09604 -0.104031 0
1.07986 -0.114025 0
1.02939 -0.0753061 0
1.01577 -0.0848159 0
1.0004 -0.0933462 0
0.945602 -0.0581921 0
0.932508 -0.0662114 0
0.91773 -0.0734443 0
1.07986 -0.114025 0
1.0629 -0.122653 0
1.04447 -0.129864 0
1.0004 -0.0933462 0
0.984278 -0.10075 0
0.96678 -0.106984 0
0.91773 -0.0734443 0
0.902243 -0.0797666 0
0.885437 -0.0851375 0
0.945602 -0.0581921 0
0.932508 -0.0662114 0
0.91773 -0.0734443 0
0.85639 -0.0425375 0
0.843996 -0.0490649 0
0.829961 -0.0549784 0
0.756414 -0.0278605 0
0.745228 -0.0329415 0
0.732341 -0.0375767 0
0.91773 -0.0734443 0
0.902243 -0.0797666 0
0.885437 -0.0851375 0
0.829961 -0.0549784 0
0.815192 -0.0601728 0
0.799124 -0.0646167 0
0.732341 -0.0375767 0
0.718673 -0.0416829 0
0.703671 -0.0452286 0
1.04447 -0.129864 0
1.02596 -0.135614 0
1.00651 -0.139933 0
0.96678 -0.106984 0
0.949127 -0.112008 0
0.930561 -0.115842 0
0.885437 -0.0851375 0
0.868427 -0.0895213 0
0.850532 -0.0929291 0
1.00651 -0.139933 0
0.98741 -0.142869 0
0.967867 -0.144467 0
0.930561 -0.115842 0
0.912233 -0.118527 0
0.893443 -0.12009 0
0.850532 -0.0929291 0
0.832793 -0.0953906 0
0.814594 -0.0969255 0
0.885437 -0.0851375 0
0.868427 -0.0895213 0
0.850532 -0.0929291 0
0.799124 -0.0646167 0
0.782785 -0.0682789 0
0.765558 -0.0711637 0
0.703671 -0.0452286 0
0.688309 -0.0481889 0
0.672026 -0.0505609 0
0.850532 -0.0929291 0
0.832793 -0.0953906 0
0.814594 -0.0969255 0
0.765558 -0.0711637 0
0.748405 -0.0732957 0
0.730772 -0.0746841 0
0.672026 -0.0505609 0
0.655725 -0.0523642 0
0.638908 -0.0535991 0
0.756414 -0.0278605 0
0.745228 -0.0329415 0
0.732341 -0.0375767 0
0.636592 -0.0156378 0
0.62765 -0.0191946 0
0.61693 -0.022464 0
0.482589 -0.00597246 0
0.477016 -0.00799378 0
0.469674 -0.00987383 0
0.732341 -0.0375767 0
0.718673 -0.0416829 0
0.703671 -0.0452286 0
0.61693 -0.022464 0
0.605317 -0.0253825 0
0.592281 -0.0279243 0
0.469674 -0.00987383 0
0.461371 -0.0115773 0
0.451636 -0.0130812 0
0.482589 -0.00597246 0
0.477016 -0.00799378 0
0.469674 -0.00987383 0
0.276916 -0.00139987 0
0.275134 -0.00204033 0
0.27191 -0.00263962 0
0 0 0
0 0 0
0 0 0
0.469674 -0.00987383 0
0.461371 -0.0115773 0
0.451636 -0.0130812 0
0.27191 -0.00263962 0
0.268022 -0.003186 0
0.262905 -0.00366336 0
0 0 0
0 0 0
0 0 0
0.703671 -0.0452286 0
0.688309 -0.0481889 0
0.672026 -0.0505609 0
0.592281 -0.0279243 0
0.578754 -0.0300713 0
0.564215 -0.0318142 0
0.451636 -0.0130812 0
0.441282 -0.0143805 0
0.429876 -0.0154569 0
0.672026 -0.0505609 0