# vtk DataFile Version 3.0
#This file was generated by the deal.II library on 2025/1/3 at 12:30:13
ASCII
DATASET UNSTRUCTURED_GRID

POINTS 34560 double
1.1 1.1 0
1.03125 1.09531 0
0.9625 1.09063 0
1.09375 1.03125 0
1.02539 1.02686 0
0.957031 1.02246 0
1.0875 0.9625 0
1.01953 0.958398 0
0.951563 0.954297 0
0.9625 1.09063 0
0.89375 1.08594 0
0.825 1.08125 0
0.957031 1.02246 0
0.888672 1.01807 0
0.820312 1.01367 0
0.951563 0.954297 0
0.883594 0.950195 0
0.815625 0.946094 0
1.0875 0.9625 0
1.01953 0.958398 0
0.951563 0.954297 0
1.08125 0.89375 0
1.01367 0.889941 0
0.946094 0.886133 0
1.075 0.825 0
1.00781 0.821484 0
0.940625 0.817969 0
0.951563 0.954297 0
0.883594 0.950195 0
0.815625 0.946094 0
0.946094 0.886133 0
0.878516 0.882324 0
0.810938 0.878516 0
0.940625 0.817969 0
0.873438 0.814453 0
0.80625 0.810937 0
0.825 1.08125 0
0.75625 1.07656 0
0.6875 1.07187 0
0.820312 1.01367 0
0.751953 1.00928 0
0.683594 1.00488 0
0.815625 0.946094 0
0.747656 0.941992 0
0.679688 0.937891 0
0.6875 1.07187 0
0.61875 1.06719 0
0.55 1.0625 0
0.683594 1.00488 0
0.615234 1.00049 0
0.546875 0.996094 0
0.679688 0.937891 0
0.611719 0.933789 0
0.54375 0.929688 0
0.815625 0.946094 0
0.747656 0.941992 0
0.679688 0.937891 0
0.810938 0.878516 0
0.743359 0.874707 0
0.675781 0.870898 0
0.80625 0.810937 0
0.739063 0.807422 0
0.671875 0.803906 0
0.679688 0.937891 0
0.611719 0.933789 0
0.54375 0.929688 0
0.675781 0.870898 0
0.608203 0.86709 0
0.540625 0.863281 0
0.671875 0.803906 0
0.604688 0.800391 0
0.5375 0.796875 0
1.075 0.825 0
1.00781 0.821484 0
0.940625 0.817969 0
1.06875 0.75625 0
1.00195 0.753027 0
0.935156 0.749805 0
1.0625 0.6875 0
0.996094 0.68457 0
0.929688 0.681641 0
0.940625 0.817969 0
0.873438 0.814453 0
0.80625 0.810937 0
0.935156 0.749805 0
0.868359 0.746582 0
0.801563 0.743359 0
0.929688 0.681641 0
0.863281 0.678711 0
0.796875 0.675781 0
1.0625 0.6875 0
0.996094 0.68457 0
0.929688 0.681641 0
1.05625 0.61875 0
0.990234 0.616113 0
0.924219 0.613477 0
1.05 0.55 0
0.984375 0.547656 0
0.91875 0.545313 0
0.929688 0.681641 0
0.863281 0.678711 0
0.796875 0.675781 0
0.924219 0.613477 0
0.858203 0.61084 0
0.792188 0.608203 0
0.91875 0.545313 0
0.853125 0.542969 0
0.7875 0.540625 0
0.80625 0.810937 0
0.739063 0.807422 0
0.671875 0.803906 0
0.801563 0.743359 0
0.734766 0.740137 0
0.667969 0.736914 0
0.796875 0.675781 0
0.730469 0.672852 0
0.664062 0.669922 0
0.671875 0.803906 0
0.604688 0.800391 0
0.5375 0.796875 0
0.667969 0.736914 0
0.601172 0.733691 0
0.534375 0.730469 0
0.664062 0.669922 0
0.597656 0.666992 0
0.53125 0.664062 0
0.796875 0.675781 0
0.730469 0.672852 0
0.664062 0.669922 0
0.792188 0.608203 0
0.726172 0.605566 0
0.660156 0.60293 0
0.7875 0.540625 0
0.721875 0.538281 0
0.65625 0.535937 0
0.664062 0.669922 0
0.597656 0.666992 0
0.53125 0.664062 0
0.660156 0.60293 0
0.594141 0.600293 0
0.528125 0.597656 0
0.65625 0.535937 0
0.590625 0.533594 0
0.525 0.53125 0
0.55 1.0625 0
0.48125 1.05781 0
0.4125 1.05313 0
0.546875 0.996094 0
0.478516 0.991699 0
0.410156 0.987305 0
0.54375 0.929688 0
0.475781 0.925586 0
0.407813 0.921484 0
0.4125 1.05313 0
0.34375 1.04844 0
0.275 1.04375 0
0.410156 0.987305 0
0.341797 0.98291 0
0.273438 0.978516 0
0.407813 0.921484 0
0.339844 0.917383 0
0.271875 0.913281 0
0.54375 0.929688 0
0.475781 0.925586 0
0.407813 0.921484 0
0.540625 0.863281 0
0.473047 0.859473 0
0.405469 0.855664 0
0.5375 0.796875 0
0.470313 0.793359 0
0.403125 0.789844 0
0.407813 0.921484 0
0.339844 0.917383 0
0.271875 0.913281 0
0.405469 0.855664 0
0.337891 0.851855 0
0.270313 0.848047 0
0.403125 0.789844 0
0.335938 0.786328 0
0.26875 0.782813 0
0.275 1.04375 0
0.20625 1.03906 0
0.1375 1.03437 0
0.273438 0.978516 0
0.205078 0.974121 0
0.136719 0.969727 0
0.271875 0.913281 0
0.203906 0.90918 0
0.135938 0.905078 0
0.1375 1.03437 0
0.06875 1.02969 0
0 1.025 0
0.136719 0.969727 0
0.0683594 0.965332 0
0 0.960937 0
0.135938 0.905078 0
0.0679688 0.900977 0
0 0.896875 0
0.271875 0.913281 0
0.203906 0.90918 0
0.135938 0.905078 0
0.270313 0.848047 0
0.202734 0.844238 0
0.135156 0.84043 0
0.26875 0.782813 0
0.201563 0.779297 0
0.134375 0.775781 0
0.135938 0.905078 0
0.0679688 0.900977 0
0 0.896875 0
0.135156 0.84043 0
0.0675781 0.836621 0
0 0.832812 0
0.134375 0.775781 0
0.0671875 0.772266 0
0 0.76875 0
0.5375 0.796875 0
0.470313 0.793359 0
0.403125 0.789844 0
0.534375 0.730469 0
0.467578 0.727246 0
0.400781 0.724023 0
0.53125 0.664062 0
0.464844 0.661133 0
0.398438 0.658203 0
0.403125 0.789844 0
0.335938 0.786328 0
0.26875 0.782813 0
0.400781 0.724023 0
0.333984 0.720801 0
0.267188 0.717578 0
0.398438 0.658203 0
0.332031 0.655273 0
0.265625 0.652344 0
0.53125 0.664062 0
0.464844 0.661133 0
0.398438 0.658203 0
0.528125 0.597656 0
0.462109 0.59502 0
0.396094 0.592383 0
0.525 0.53125 0
0.459375 0.528906 0
0.39375 0.526563 0
0.398438 0.658203 0
0.332031 0.655273 0
0.265625 0.652344 0
0.396094 0.592383 0
0.330078 0.589746 0
0.264062 0.587109 0
0.39375 0.526563 0
0.328125 0.524219 0
0.2625 0.521875 0
0.26875 0.782813 0
0.201563 0.779297 0
0.134375 0.775781 0
0.267188 0.717578 0
0.200391 0.714355 0
0.133594 0.711133 0
0.265625 0.652344 0
0.199219 0.649414 0
0.132812 0.646484 0
0.134375 0.775781 0
0.0671875 0.772266 0
0 0.76875 0
0.133594 0.711133 0
0.0667969 0.70791 0
0 0.704687 0
0.132812 0.646484 0
0.0664062 0.643555 0
0 0.640625 0
0.265625 0.652344 0
0.199219 0.649414 0
0.132812 0.646484 0
0.264062 0.587109 0
0.198047 0.584473 0
0.132031 0.581836 0
0.2625 0.521875 0
0.196875 0.519531 0
0.13125 0.517187 0
0.132812 0.646484 0
0.0664062 0.643555 0
0 0.640625 0
0.132031 0.581836 0
0.0660156 0.579199 0
0 0.576562 0
0.13125 0.517187 0
0.065625 0.514844 0
0 0.5125 0
1.05 0.55 0
0.984375 0.547656 0
0.91875 0.545313 0
1.04375 0.48125 0
0.978516 0.479199 0
0.913281 0.477148 0
1.0375 0.4125 0
0.972656 0.410742 0
0.907813 0.408984 0
0.91875 0.545313 0
0.853125 0.542969 0
0.7875 0.540625 0
0.913281 0.477148 0
0.848047 0.475098 0
0.782813 0.473047 0
0.907813 0.408984 0
0.842969 0.407227 0
0.778125 0.405469 0
1.0375 0.4125 0
0.972656 0.410742 0
0.907813 0.408984 0
1.03125 0.34375 0
0.966797 0.342285 0
0.902344 0.34082 0
1.025 0.275 0
0.960937 0.273828 0
0.896875 0.272656 0
0.907813 0.408984 0
0.842969 0.407227 0
0.778125 0.405469 0
0.902344 0.34082 0
0.837891 0.339355 0
0.773438 0.337891 0
0.896875 0.272656 0
0.832812 0.271484 0
0.76875 0.270313 0
0.7875 0.540625 0
0.721875 0.538281 0
0.65625 0.535937 0
0.782813 0.473047 0
0.717578 0.470996 0
0.652344 0.468945 0
0.778125 0.405469 0
0.713281 0.403711 0
0.648438 0.401953 0
0.65625 0.535937 0
0.590625 0.533594 0
0.525 0.53125 0
0.652344 0.468945 0
0.587109 0.466895 0
0.521875 0.464844 0
0.648438 0.401953 0
0.583594 0.400195 0
0.51875 0.398438 0
0.778125 0.405469 0
0.713281 0.403711 0
0.648438 0.401953 0
0.773438 0.337891 0
0.708984 0.336426 0
0.644531 0.334961 0
0.76875 0.270313 0
0.704687 0.269141 0
0.640625 0.267969 0
0.648438 0.401953 0
0.583594 0.400195 0
0.51875 0.398438 0
0.644531 0.334961 0
0.580078 0.333496 0
0.515625 0.332031 0
0.640625 0.267969 0
0.576562 0.266797 0
0.5125 0.265625 0
1.025 0.275 0
0.960937 0.273828 0
0.896875 0.272656 0
1.01875 0.20625 0
0.955078 0.205371 0
0.891406 0.204492 0
1.0125 0.1375 0
0.949219 0.136914 0
0.885937 0.136328 0
0.896875 0.272656 0
0.832812 0.271484 0
0.76875 0.270313 0
0.891406 0.204492 0
0.827734 0.203613 0
0.764062 0.202734 0
0.885937 0.136328 0
0.822656 0.135742 0
0.759375 0.135156 0
1.0125 0.1375 0
0.949219 0.136914 0
0.885937 0.136328 0
1.00625 0.06875 0
0.943359 0.068457 0
0.880469 0.0681641 0
1 0 0
0.9375 0 0
0.875 0 0
0.885937 0.136328 0
0.822656 0.135742 0
0.759375 0.135156 0
0.880469 0.0681641 0
0.817578 0.0678711 0
0.754687 0.0675781 0
0.875 0 0
0.8125 0 0
0.75 0 0
0.76875 0.270313 0
0.704687 0.269141 0
0.640625 0.267969 0
0.764062 0.202734 0
0.700391 0.201855 0
0.636719 0.200977 0
0.759375 0.135156 0
0.696094 0.13457 0
0.632812 0.133984 0
0.640625 0.267969 0
0.576562 0.266797 0
0.5125 0.265625 0
0.636719 0.200977 0
0.573047 0.200098 0
0.509375 0.199219 0
0.632812 0.133984 0
0.569531 0.133398 0
0.50625 0.132812 0
0.759375 0.135156 0
0.696094 0.13457 0
0.632812 0.133984 0
0.754687 0.0675781 0
0.691797 0.0672852 0
0.628906 0.0669922 0
0.75 0 0
0.6875 0 0
0.625 0 0
0.632812 0.133984 0
0.569531 0.133398 0
0.50625 0.132812 0
0.628906 0.0669922 0
0.566016 0.0666992 0
0.503125 0.0664062 0
0.625 0 0
0.5625 0 0
0.5 0 0
0.525 0.53125 0
0.459375 0.528906 0
0.39375 0.526563 0
0.521875 0.464844 0
0.456641 0.462793 0
0.391406 0.460742 0
0.51875 0.398438 0
0.453906 0.39668 0
0.389063 0.394922 0
0.39375 0.526563 0
0.328125 0.524219 0
0.2625 0.521875 0
0.391406 0.460742 0
0.326172 0.458691 0
0.260938 0.456641 0
0.389063 0.394922 0
0.324219 0.393164 0
0.259375 0.391406 0
0.51875 0.398438 0
0.453906 0.39668 0
0.389063 0.394922 0
0.515625 0.332031 0
0.451172 0.330566 0
0.386719 0.329102 0
0.5125 0.265625 0
0.448437 0.264453 0
0.384375 0.263281 0
0.389063 0.394922 0
0.324219 0.393164 0
0.259375 0.391406 0
0.386719 0.329102 0
0.322266 0.327637 0
0.257812 0.326172 0
0.384375 0.263281 0
0.320312 0.262109 0
0.25625 0.260937 0
0.2625 0.521875 0
0.196875 0.519531 0
0.13125 0.517187 0
0.260938 0.456641 0
0.195703 0.45459 0
0.130469 0.452539 0
0.259375 0.391406 0
0.194531 0.389648 0
0.129688 0.387891 0
0.13125 0.517187 0
0.065625 0.514844 0
0 0.5125 0
0.130469 0.452539 0
0.0652344 0.450488 0
0 0.448437 0
0.129688 0.387891 0
0.0648438 0.386133 0
0 0.384375 0
0.259375 0.391406 0
0.194531 0.389648 0
0.129688 0.387891 0
0.257812 0.326172 0
0.193359 0.324707 0
0.128906 0.323242 0
0.25625 0.260937 0
0.192187 0.259766 0
0.128125 0.258594 0
0.129688 0.387891 0
0.0648438 0.386133 0
0 0.384375 0
0.128906 0.323242 0
0.0644531 0.321777 0
0 0.320312 0
0.128125 0.258594 0
0.0640625 0.257422 0
0 0.25625 0
0.5125 0.265625 0
0.448437 0.264453 0
0.384375 0.263281 0
0.509375 0.199219 0
0.445703 0.19834 0
0.382031 0.197461 0
0.50625 0.132812 0
0.442969 0.132227 0
0.379688 0.131641 0
0.384375 0.263281 0
0.320312 0.262109 0
0.25625 0.260937 0
0.382031 0.197461 0
0.318359 0.196582 0
0.254687 0.195703 0
[...]
POINT_DATA 34560
VECTORS v double
1.2107 -0.271392 0
1.20026 -0.243664 0
1.19131 -0.218905 0
1.18136 -0.258276 0
1.1685 -0.233524 0
1.15767 -0.210482 0
1.14733 -0.244047 0
1.13278 -0.221405 0
1.11991 -0.20014 0
1.19131 -0.218905 0
1.18356 -0.195589 0
1.17705 -0.174452 0
1.15767 -0.210482 0
1.14767 -0.188895 0
1.13942 -0.168985 0
1.11991 -0.20014 0
1.1082 -0.180169 0
1.09807 -0.161536 0
1.14733 -0.244047 0
1.13278 -0.221405 0
1.11991 -0.20014 0
1.1073 -0.226925 0
1.09107 -0.206626 0
1.07663 -0.187447 0
1.06109 -0.209691 0
1.04378 -0.191531 0
1.02816 -0.174233 0
1.11991 -0.20014 0
1.1082 -0.180169 0
1.09807 -0.161536 0
1.07663 -0.187447 0
1.06339 -0.169289 0
1.05179 -0.15225 0
1.02816 -0.174233 0
1.01382 -0.157758 0
1.00108 -0.142193 0
1.17705 -0.174452 0
1.17096 -0.154764 0
1.16585 -0.13671 0
1.13942 -0.168985 0
1.13143 -0.150346 0
1.12483 -0.133128 0
1.09807 -0.161536 0
1.08851 -0.144063 0
1.08033 -0.127775 0
1.16585 -0.13671 0
1.16074 -0.119875 0
1.15634 -0.104243 0
1.12483 -0.133128 0
1.11817 -0.11695 0
1.11257 -0.101872 0
1.08033 -0.127775 0
1.07236 -0.112437 0
1.06551 -0.0980493 0
1.09807 -0.161536 0
1.08851 -0.144063 0
1.08033 -0.127775 0
1.05179 -0.15225 0
1.04092 -0.136143 0
1.03146 -0.121047 0
1.00108 -0.142193 0
0.989182 -0.127408 0
0.978702 -0.113474 0
1.08033 -0.127775 0
1.07236 -0.112437 0
1.06551 -0.0980493 0
1.03146 -0.121047 0
1.02242 -0.106743 0
1.01454 -0.0932575 0
0.978702 -0.113474 0
0.968792 -0.100218 0
0.960083 -0.0876645 0
1.06109 -0.209691 0
1.04378 -0.191531 0
1.02816 -0.174233 0
1.00948 -0.191376 0
0.991351 -0.175274 0
0.974842 -0.159843 0
0.953068 -0.172912 0
0.934336 -0.158698 0
0.917135 -0.145004 0
1.02816 -0.174233 0
1.01382 -0.157758 0
1.00108 -0.142193 0
0.974842 -0.159843 0
0.959632 -0.145055 0
0.945975 -0.131016 0
0.917135 -0.145004 0
0.901246 -0.131829 0
0.886859 -0.119266 0
0.953068 -0.172912 0
0.934336 -0.158698 0
0.917135 -0.145004 0
0.891629 -0.153317 0
0.872446 -0.140978 0
0.854762 -0.129053 0
0.825409 -0.133969 0
0.806007 -0.123372 0
0.788034 -0.113094 0
0.917135 -0.145004 0
0.901246 -0.131829 0
0.886859 -0.119266 0
0.854762 -0.129053 0
0.838376 -0.117535 0
0.823464 -0.106512 0
0.788034 -0.113094 0
0.771347 -0.103136 0
0.756088 -0.0935789 0
1.00108 -0.142193 0
0.989182 -0.127408 0
0.978702 -0.113474 0
0.945975 -0.131016 0
0.933261 -0.11762 0
0.921948 -0.104938 0
0.886859 -0.119266 0
0.873491 -0.107236 0
0.861507 -0.0958046 0
0.978702 -0.113474 0
0.968792 -0.100218 0
0.960083 -0.0876645 0
0.921948 -0.104938 0
0.911339 -0.0928275 0
0.901949 -0.0813153 0
0.861507 -0.0958046 0
0.850336 -0.0848557 0
0.840396 -0.0744152 0
0.886859 -0.119266 0
0.873491 -0.107236 0
0.861507 -0.0958046 0
0.823464 -0.106512 0
0.809615 -0.0959174 0
0.79714 -0.0858175 0
0.756088 -0.0935789 0
0.741922 -0.0843705 0
0.729109 -0.0755711 0
0.861507 -0.0958046 0
0.850336 -0.0848557 0
0.840396 -0.0744152 0
0.79714 -0.0858175 0
0.785557 -0.0761125 0
0.775217 -0.0668324 0
0.729109 -0.0755711 0
0.717249 -0.0671 0
0.706632 -0.0589827 0
1.15634 -0.104243 0
1.15182 -0.0895186 0
1.14782 -0.0756191 0
1.11257 -0.101872 0
1.10688 -0.0875825 0
1.10197 -0.0740667 0
1.06551 -0.0980493 0
1.0588 -0.0843791 0
1.05298 -0.0713999 0
1.14782 -0.0756191 0
1.14362 -0.0623135 0
1.13978 -0.0495005 0
1.10197 -0.0740667 0
1.09694 -0.0610759 0
1.0925 -0.0485516 0
1.05298 -0.0713999 0
1.04722 -0.0588985 0
1.04218 -0.0468188 0
1.06551 -0.0980493 0
1.0588 -0.0843791 0
1.05298 -0.0713999 0
1.01454 -0.0932575 0
1.00701 -0.0803825 0
1.00044 -0.0681124 0
0.960083 -0.0876645 0
0.951864 -0.0756434 0
0.944669 -0.0641487 0
1.05298 -0.0713999 0
1.04722 -0.0588985 0
1.04218 -0.0468188 0
1.00044 -0.0681124 0
0.994115 -0.0562555 0
0.988589 -0.044764 0
0.944669 -0.0641487 0
0.937874 -0.0530148 0
0.931948 -0.0421999 0
1.13978 -0.0495005 0
1.13586 -0.0369757 0
1.13221 -0.0246364 0
1.0925 -0.0485516 0
1.08807 -0.0362926 0
1.08412 -0.0242108 0
1.04218 -0.0468188 0
1.03732 -0.0349786 0
1.03306 -0.0233082 0
1.13221 -0.0246364 0
1.12849 -0.0123263 0
1.125 0 0
1.08412 -0.0242108 0
1.08019 -0.0121486 0
1.07666 0 0
1.03306 -0.0233082 0
1.02896 -0.0116634 0
1.02539 0 0
1.04218 -0.0468188 0
1.03732 -0.0349786 0
1.03306 -0.0233082 0
0.988589 -0.044764 0
0.983401 -0.0334754 0
0.978916 -0.0223361 0
0.931948 -0.0421999 0
0.926494 -0.0315626 0
0.921826 -0.0210535 0
1.03306 -0.0233082 0
1.02896 -0.0116634 0
1.02539 0 0
0.978916 -0.0223361 0
0.974739 -0.0112062 0
0.971191 0 0
0.921826 -0.0210535 0
0.917586 -0.0105482 0
0.914062 0 0
0.960083 -0.0876645 0
0.951864 -0.0756434 0
0.944669 -0.0641487 0
0.901949 -0.0813153 0
0.893184 -0.070255 0
0.885484 -0.0596466 0
0.840396 -0.0744152 0
0.831195 -0.0643606 0
0.823094 -0.0546921 0
0.944669 -0.0641487 0
0.937874 -0.0530148 0
0.931948 -0.0421999 0
0.885484 -0.0596466 0
0.878322 -0.0493445 0
0.872091 -0.0393151 0
0.823094 -0.0546921 0
0.815647 -0.0452848 0
0.809184 -0.0361077 0
0.840396 -0.0744152 0
0.831195 -0.0643606 0
0.823094 -0.0546921 0
0.775217 -0.0668324 0
0.765703 -0.0578702 0
0.757319 -0.0492312 0
0.706632 -0.0589827 0
0.696913 -0.0511303 0
0.688343 -0.0435468 0
0.823094 -0.0546921 0
0.815647 -0.0452848 0
0.809184 -0.0361077 0
0.757319 -0.0492312 0
0.749685 -0.040804 0
0.743079 -0.0325653 0
0.688343 -0.0435468 0
0.680601 -0.0361372 0
0.673923 -0.0288791 0
0.931948 -0.0421999 0
0.926494 -0.0315626 0
0.921826 -0.0210535 0
0.872091 -0.0393151 0
0.86645 -0.0294299 0
0.861669 -0.0196485 0
0.809184 -0.0361077 0
0.803413 -0.0270484 0
0.798565 -0.0180707 0
0.921826 -0.0210535 0
0.917586 -0.0105482 0
0.914062 0 0
0.861669 -0.0196485 0
0.857436 -0.00985693 0
0.854004 0 0
0.798565 -0.0180707 0
0.794358 -0.00907181 0
0.791016 0 0
0.809184 -0.0361077 0
0.803413 -0.0270484 0
0.798565 -0.0180707 0
0.743079 -0.0325653 0
0.737252 -0.0244133 0
0.732402 -0.0163199 0
0.673923 -0.0288791 0
0.668095 -0.0216838 0
0.663289 -0.0145245 0
0.798565 -0.0180707 0
0.794358 -0.00907181 0
0.791016 0 0
0.732402 -0.0163199 0
0.728284 -0.00819199 0
0.725098 0 0
0.663289 -0.0145245 0
0.659282 -0.00731775 0
0.65625 0 0
0.825409 -0.133969 0
0.806007 -0.123372 0
0.788034 -0.113094 0
0.754604 -0.11393 0
0.735086 -0.105018 0
0.716966 -0.096362 0
0.679113 -0.0942106 0
0.659657 -0.0869009 0
0.64155 -0.079793 0
0.788034 -0.113094 0
0.771347 -0.103136 0
0.756088 -0.0935789 0
0.716966 -0.096362 0
0.700104 -0.087959 0
0.684644 -0.0798839 0
0.64155 -0.079793 0
0.624684 -0.0728851 0
0.609186 -0.0662432 0
0.679113 -0.0942106 0
0.659657 -0.0869009 0
0.64155 -0.079793 0
0.598594 -0.0740208 0
0.579348 -0.0682753 0
0.561442 -0.062697 0
0.511542 -0.0544835 0
0.492903 -0.0502464 0
0.475564 -0.0461409 0
0.64155 -0.079793 0
0.624684 -0.0728851 0
0.609186 -0.0662432 0
0.561442 -0.062697 0
0.544746 -0.0572755 0
0.529402 -0.0520695 0
0.475564 -0.0461409 0
0.459406 -0.0421533 0
0.44456 -0.0383344 0
0.756088 -0.0935789 0
0.741922 -0.0843705 0
0.729109 -0.0755711 0
0.684644 -0.0798839 0
0.670293 -0.0720907 0
0.657281 -0.0646343 0
0.609186 -0.0662432 0
0.594808 -0.0598278 0
0.581748 -0.0536875 0
0.729109 -0.0755711 0
0.717249 -0.0671 0
0.706632 -0.0589827 0
0.657281 -0.0646343 0
0.645267 -0.0574444 0
0.634499 -0.0505457 0
0.581748 -0.0536875 0
0.569718 -0.0477634 0
0.558927 -0.0420761 0
0.609186 -0.0662432 0
0.594808 -0.0598278 0
0.581748 -0.0536875 0
0.529402 -0.0520695 0
0.515174 -0.0470415 0
0.502247 -0.0422346 0
0.44456 -0.0383344 0
0.430812 -0.0346493 0
0.418323 -0.0311348 0
0.581748 -0.0536875 0
0.569718 -0.0477634 0
0.558927 -0.0420761 0
0.502247 -0.0422346 0
0.490365 -0.0375971 0
0.479711 -0.0331471 0
0.418323 -0.0311348 0
0.406868 -0.0277469 0
0.396605 -0.0245018 0
0.511542 -0.0544835 0
0.492903 -0.0502464 0
0.475564 -0.0461409 0
0.41531 -0.0353565 0
0.397931 -0.0325606 0
0.381819 -0.0298683 0
0.30401 -0.0183259 0
0.289385 -0.0168715 0
0.275865 -0.0154832 0
0.475564 -0.0461409 0
0.459406 -0.0421533 0
0.44456 -0.0383344 0
0.381819 -0.0298683 0
0.366819 -0.0272584 0
0.353073 -0.0247734 0
0.275865 -0.0154832 0
0.263306 -0.0141335 0
0.251829 -0.0128586 0
0.30401 -0.0183259 0
0.289385 -0.0168715 0
0.275865 -0.0154832 0
0.169086 -0.00532029 0
0.159761 -0.0048741 0
0.151222 -0.00446481 0
0 0 0
0 0 0
0 0 0
0.275865 -0.0154832 0
0.263306 -0.0141335 0
0.251829 -0.0128586 0
0.151222 -0.00446481 0
0.143271 -0.00405876 0
0.136062 -0.00368987 0
0 0 0
0 0 0
0 0 0
0.44456 -0.0383344 0
0.430812 -0.0346493 0
0.418323 -0.0311348 0
0.353073 -0.0247734 0
0.340361 -0.0223802 0
0.328837 -0.0201089 0
0.251829 -0.0128586 0
0.241238 -0.0116279 0
0.231656 -0.0104679 0
0.418323 -0.0311348 0
0.406868 -0.0277469 0
0.396605 -0.0245018 0
0.328837 -0.0201089 0
0.318285 -0.0179221 0
0.308846 -0.0158358 0
0.231656 -0.0104679 0
0.222895 -0.00934971 0
0.215068 -0.0082898 0
0.251829 -0.0128586 0
0.241238 -0.0116279 0
0.231656 -0.0104679 0
0.136062 -0.00368987 0
0.129391 -0.00332525 0
0.123396 -0.00299291 0
0 0 0
0 0 0
0 0 0
0.231656 -0.0104679 0
0.222895 -0.00934971 0
0.215068 -0.0082898 0
0.123396 -0.00299291 0
0.117894 -0.00266491 0
0.113007 -0.00236345 0
0 0 0
0 0 0
0 0 0
0.706632 -0.0589827 0
0.696913 -0.0511303 0
0.688343 -0.0435468 0
0.634499 -0.0505457 0
0.624681 -0.0438604 0
0.616029 -0.037394 0
0.558927 -0.0420761 0
0.549124 -0.03656 0
0.540491 -0.0312199 0
0.688343 -0.0435468 0
0.680601 -0.0361372 0
0.673923 -0.0288791 0
0.616029 -0.037394 0
0.608267 -0.0310621 0
0.601596 -0.024847 0
0.540491 -0.0312199 0
0.532794 -0.0259835 0
0.526206 -0.0208328 0
0.558927 -0.0420761 0
0.549124 -0.03656 0
0.540491 -0.0312199 0
0.479711 -0.0331471 0
0.470061 -0.0288272 0
0.461577 -0.0246434 0
0.396605 -0.0245018 0
0.387332 -0.021352 0
0.379192 -0.0183018 0
0.540491 -0.0312199 0
0.532794 -0.0259835 0
0.526206 -0.0208328 0
0.461577 -0.0246434 0
0.454054 -0.0205327 0
0.447645 -0.016479 0
0.379192 -0.0183018 0
0.372007 -0.0152989 0
0.365913 -0.0123295 0
0.673923 -0.0288791 0
0.668095 -0.0216838 0
0.663289 -0.0145245 0
0.601596 -0.024847 0
0.595832 -0.0186687 0
0.591127 -0.0125073 0
0.526206 -0.0208328 0
0.520564 -0.015699 0
0.516008 -0.010563 0
0.663289 -0.0145245 0
0.659282 -0.00731775 0
0.65625 0 0
0.591127 -0.0125073 0
0.587286 -0.00628668 0
0.584473 0 0
0.516008 -0.010563 0
0.51236 -0.00535814 0
0.509766 0 0
0.526206 -0.0208328 0
0.520564 -0.015699 0
0.516008 -0.010563 0
0.447645 -0.016479 0
0.442199 -0.0124216 0
0.43785 -0.00835266 0
0.365913 -0.0123295 0
0.360771 -0.00934341 0
0.356708 -0.00632782 0
0.516008 -0.010563 0
0.51236 -0.00535814 0
0.509766 0 0
0.43785 -0.00835266 0
0.434446 -0.00421102 0
0.432129 0 0
0.356708 -0.00632782 0
0.353594 -0.00324697 0
0.351562 0 0
0.396605 -0.0245018 0
0.387332 -0.021352 0
0.379192 -0.0183018 0
0.308846 -0.0158358 0
0.300331 -0.0138107 0
0.292872 -0.011852 0
0.215068 -0.0082898 0
0.208014 -0.00725987 0
0.20184 -0.00626629 0
0.379192 -0.0183018 0
0.372007 -0.0152989 0
0.365913 -0.0123295 0
0.292872 -0.011852 0
0.286306 -0.00991768 0
0.280765 -0.00799955 0
0.20184 -0.00626629 0
0.196409 -0.00528108 0
0.191839 -0.00430525 0
0.215068 -0.0082898 0
0.208014 -0.00725987 0
0.20184 -0.00626629 0
0.113007 -0.00236345 0
0.108579 -0.00206557 0
0.104727 -0.00178331 0
0 0 0
0 0 0
0 0 0
0.20184 -0.00626629 0
0.196409 -0.00528108 0
0.191839 -0.00430525 0
0.104727 -0.00178331 0
0.101312 -0.00149442 0
0.0984532 -0.00121395 0
0 0 0
0 0 0
0 0 0
0.365913 -0.0123295 0
0.360771 -0.00934341 0
0.356708 -0.00632782 0
0.280765 -0.00799955 0
0.276115 -0.00605266 0
0.272489 -0.0040731 0
0.191839 -0.00430525 0
0.188025 -0.0033088 0
0.185091 -0.00226939 0
0.356708 -0.00632782 0
0.353594 -0.00324697 0
0.351562 0 0
0.272489 -0.0040731 0
0.269759 -0.00202912 0
0.268066 0 0
0.185091 -0.00226939 0
0.182923 -0.00118855 0
0.181641 0 0
0.191839 -0.00430525 0
0.188025 -0.0033088 0
0.185091 -0.00226939 0
0.0984532 -0.00121395 0
0.096048 -0.000928316 0
0.0942722 -0.000618719 0
0 0 0
0 0 0
0 0 0
0.185091 -0.00226939 0
0.182923 -0.00118855 0
0.181641 0 0
0.0942722 -0.000618719 0
0.0929502 -0.000254923 0
0.0922852 0 0
0 0 0
0 0 0
0 0 0
1.63186 -0.499136 0
1.59397 -0.507695 0
1.55451 -0.511959 0
1.58584 -0.453084 0
1.55013 -0.4607 0
1.51331 -0.464725 0
1.53494 -0.410459 0
1.50199 -0.417512 0
1.46808 -0.421518 0
1.55451 -0.511959 0
1.51552 -0.511556 0
1.47586 -0.506713 0
1.51331 -0.464725 0
1.47684 -0.465059 0
1.43997 -0.461616 0
1.46808 -0.421518 0
1.4346 -0.422456 0
1.40082 -0.420141 0
1.53494 -0.410459 0
1.50199 -0.417512 0
1.46808 -0.421518 0
1.48485 -0.372125 0
1.45405 -0.377718 0
1.42248 -0.380809 0
1.43053 -0.334217 0
1.40074 -0.339059 0
1.37034 -0.341788 0
1.46808 -0.421518 0
1.4346 -0.422456 0
1.40082 -0.420141 0
1.42248 -0.380809 0
1.39116 -0.381341 0
1.35955 -0.379223 0
1.37034 -0.341788 0
1.34025 -0.342387 0
1.31 -0.340762 0
1.47586 -0.506713 0
1.4392 -0.497715 0
1.4031 -0.484563 0
1.43997 -0.461616 0
1.40559 -0.454532 0
1.37178 -0.444266 0
1.40082 -0.420141 0
1.36905 -0.414826 0
1.33779 -0.406619 0
1.4031 -0.484563 0
1.37103 -0.468721 0
1.34032 -0.449919 0
1.37178 -0.444266 0
1.34134 -0.431287 0
1.31221 -0.415837 0
1.33779 -0.406619 0
1.30918 -0.39592 0
1.28171 -0.382922 0
1.40082 -0.420141 0
1.36905 -0.414826 0
1.33779 -0.406619 0
1.35955 -0.379223 0
1.32945 -0.374601 0
1.29969 -0.367567 0
1.31 -0.340762 0
1.28104 -0.337034 0
1.2525 -0.331278 0
1.33779 -0.406619 0
1.30918 -0.39592 0
1.28171 -0.382922 0
1.29969 -0.367567 0
1.27204 -0.35847 0
1.24535 -0.347446 0
1.2525 -0.331278 0
1.22578 -0.323741 0
1.19998 -0.31452 0
1.43053 -0.334217 0
1.40074 -0.339059 0
1.37034 -0.341788 0
1.3716 -0.298929 0
1.34288 -0.303316 0
1.31367 -0.305845 0
1.31093 -0.264602 0
1.28312 -0.268592 0
1.25485 -0.270976 0
1.37034 -0.341788 0
1.34025 -0.342387 0
1.31 -0.340762 0
1.31367 -0.305845 0
1.28485 -0.306502 0
1.25592 -0.305237 0
1.25485 -0.270976 0
1.22696 -0.271744 0
1.19898 -0.270848 0
1.31093 -0.264602 0
1.28312 -0.268592 0
1.25485 -0.270976 0
1.24781 -0.231213 0
1.22057 -0.234707 0
1.19293 -0.236819 0
1.18092 -0.198708 0
1.15405 -0.20185 0
1.12681 -0.203816 0
1.25485 -0.270976 0
1.22696 -0.271744 0
1.19898 -0.270848 0
1.19293 -0.236819 0
1.16564 -0.237554 0
1.13828 -0.236873 0
1.12681 -0.203816 0
1.09993 -0.204619 0
1.07301 -0.204218 0
1.31 -0.340762 0
1.28104 -0.337034 0
1.2525 -0.331278 0
1.25592 -0.305237 0
1.22816 -0.302146 0
1.20079 -0.297285 0
1.19898 -0.270848 0
1.172 -0.26837 0
1.14538 -0.264353 0
1.2525 -0.331278 0
1.22578 -0.323741 0
1.19998 -0.31452 0
1.20079 -0.297285 0
1.17498 -0.290855 0
1.14999 -0.282942 0
1.14538 -0.264353 0
1.1201 -0.258967 0
1.09558 -0.252278 0
1.19898 -0.270848 0
1.172 -0.26837 0
1.14538 -0.264353 0
1.13828 -0.236873 0
1.1118 -0.234858 0
1.08567 -0.23153 0
1.07301 -0.204218 0
1.04691 -0.202684 0
1.02115 -0.200026 0
1.14538 -0.264353 0
1.1201 -0.258967 0
1.09558 -0.252278 0
1.08567 -0.23153 0
1.06073 -0.227039 0
1.03649 -0.221419 0
1.02115 -0.200026 0
0.996461 -0.196367 0
0.972448 -0.191733 0
1.34032 -0.449919 0
1.31426 -0.429631 0
1.29037 -0.407276 0
1.31221 -0.415837 0
1.28708 -0.398506 0
1.26389 -0.379749 0
1.28171 -0.382922 0
1.2574 -0.36822 0
1.23477 -0.352053 0
1.29037 -0.407276 0
1.27031 -0.384614 0
1.25265 -0.361287 0
1.26389 -0.379749 0
1.24402 -0.360172 0
1.22639 -0.339828 0
1.23477 -0.352053 0
1.21489 -0.334889 0
1.19692 -0.316921 0
1.28171 -0.382922 0
1.2574 -0.36822 0
1.23477 -0.352053 0
1.24535 -0.347446 0
1.2213 -0.334938 0
1.1987 -0.321091 0
1.19998 -0.31452 0
1.17647 -0.303938 0
1.15433 -0.29216 0
1.23477 -0.352053 0
1.21489 -0.334889 0
1.19692 -0.316921 0
1.1987 -0.321091 0
1.17852 -0.306354 0
1.16009 -0.290883 0
1.15433 -0.29216 0
1.13431 -0.279521 0
1.11591 -0.266145 0
1.25265 -0.361287 0
1.23849 -0.338223 0
1.22699 -0.315055 0
1.22639 -0.339828 0
1.21184 -0.319214 0
1.19963 -0.298609 0
1.19692 -0.316921 0
1.18153 -0.298626 0
1.16823 -0.280186 0
1.22699 -0.315055 0
1.21779 -0.292764 0
1.2107 -0.271392 0
1.19963 -0.298609 0
1.18941 -0.27831 0
1.18136 -0.258276 0
1.16823 -0.280186 0
1.15679 -0.26191 0
1.14733 -0.244047 0
1.19692 -0.316921 0
1.18153 -0.298626 0
1.16823 -0.280186 0
1.16009 -0.290883 0
1.14408 -0.275041 0
1.13001 -0.258953 0
1.11591 -0.266145 0
1.09967 -0.252314 0
1.08519 -0.238172 0
1.16823 -0.280186 0
1.15679 -0.26191 0
1.14733 -0.244047 0
1.13001 -0.258953 0
1.11772 -0.242876 0
1.1073 -0.226925 0
1.08519 -0.238172 0
1.07229 -0.223916 0
1.06109 -0.209691 0
1.19998 -0.31452 0
1.17647 -0.303938 0
1.15433 -0.29216 0
1.14999 -0.282942 0
1.12696 -0.273825 0
1.10516 -0.263635 0
1.09558 -0.252278 0
1.07275 -0.244517 0
1.05104 -0.235794 0
1.15433 -0.29216 0
1.13431 -0.279521 0
1.11591 -0.266145 0
1.10516 -0.263635 0
1.08518 -0.252655 0
1.06664 -0.240978 0
1.05104 -0.235794 0
1.03096 -0.226342 0
1.01223 -0.216252 0
1.09558 -0.252278 0
1.07275 -0.244517 0
1.05104 -0.235794 0
1.03649 -0.221419 0
1.01376 -0.214871 0
0.992075 -0.207473 0
0.972448 -0.191733 0
0.949772 -0.186283 0
0.928083 -0.180088 0
1.05104 -0.235794 0
1.03096 -0.226342 0
1.01223 -0.216252 0
0.992075 -0.207473 0
0.971863 -0.199423 0
0.95291 -0.190791 0
0.928083 -0.180088 0
0.907722 -0.173306 0
0.888544 -0.165998 0
1.11591 -0.266145 0
1.09967 -0.252314 0
1.08519 -0.238172 0
1.06664 -0.240978 0
1.05002 -0.228869 0
1.035 -0.216464 0
1.01223 -0.216252 0
0.995236 -0.205745 0
0.979752 -0.194939 0
1.08519 -0.238172 0
1.07229 -0.223916 0
1.06109 -0.209691 0
1.035 -0.216464 0
1.02145 -0.203945 0
1.00948 -0.191376 0
0.979752 -0.194939 0
0.965658 -0.183968 0
0.953068 -0.172912 0
1.01223 -0.216252 0
0.995236 -0.205745 0
0.979752 -0.194939 0
0.95291 -0.190791 0
0.935532 -0.181761 0
0.919566 -0.17243 0
0.888544 -0.165998 0
0.870802 -0.158317 0
0.854396 -0.150357 0
0.979752 -0.194939 0
0.965658 -0.183968 0
0.953068 -0.172912 0
0.919566 -0.17243 0
0.904894 -0.162925 0
0.891629 -0.153317 0
0.854396 -0.150357 0
0.839223 -0.14222 0
0.825409 -0.133969 0
1.18092 -0.198708 0
1.15405 -0.20185 0
1.12681 -0.203816 0
1.11116 -0.167475 0
1.08454 -0.170241 0
1.05758 -0.172006 0
1.03767 -0.136635 0
1.01119 -0.139103 0
0.984366 -0.140731 0
1.12681 -0.203816 0
1.09993 -0.204619 0
1.07301 -0.204218 0
1.05758 -0.172006 0
1.03099 -0.172781 0
1.00436 -0.172531 0
0.984366 -0.140731 0
0.957901 -0.141533 0
0.931403 -0.141478 0
1.03767 -0.136635 0
1.01119 -0.139103 0
0.984366 -0.140731 0
0.958287 -0.106409 0
0.932047 -0.108546 0
0.905442 -0.109997 0
0.866497 -0.0770196 0
0.840996 -0.0788247 0
0.815049 -0.0800963 0
0.984366 -0.140731 0
0.957901 -0.141533 0
0.931403 -0.141478 0
0.905442 -0.109997 0
0.879165 -0.110774 0
0.852838 -0.110852 0
0.815049 -0.0800963 0
0.78938 -0.0808516 0
0.763614 -0.0810634 0
1.07301 -0.204218 0
1.04691 -0.202684 0
1.02115 -0.200026 0
1.00436 -0.172531 0
0.978476 -0.171319 0
0.952913 -0.169155 0
0.931403 -0.141478 0
0.905594 -0.140623 0
0.880093 -0.138973 0
1.02115 -0.200026 0
0.996461 -0.196367 0
0.972448 -0.191733 0
0.952913 -0.169155 0
0.928321 -0.166145 0
0.904368 -0.162307 0
0.880093 -0.138973 0
0.855488 -0.136618 0
0.831502 -0.133569 0
0.931403 -0.141478 0
0.905594 -0.140623 0
0.880093 -0.138973 0
0.852838 -0.110852 0
0.827137 -0.110285 0
0.801725 -0.10907 0
0.763614 -0.0810634 0
0.738399 -0.0807793 0
0.713433 -0.0799923 0
0.880093 -0.138973 0
0.855488 -0.136618 0
0.831502 -0.133569 0
0.801725 -0.10907 0
0.777137 -0.107286 0
0.753143 -0.104936 0
0.713433 -0.0799923 0
0.689215 -0.0787681 0
0.665556 -0.0771048 0
0.866497 -0.0770196 0
0.840996 -0.0788247 0
0.815049 -0.0800963 0
0.751159 -0.0493832 0
0.727612 -0.0507626 0
0.703512 -0.0517635 0
0.588918 -0.0243882 0
0.569681 -0.0252788 0
0.549764 -0.0259508 0
0.815049 -0.0800963 0
0.78938 -0.0808516 0
0.763614 -0.0810634 0
0.703512 -0.0517635 0
0.679553 -0.0524024 0
0.655399 -0.0526543 0
0.549764 -0.0259508 0
0.529816 -0.026426 0
0.509562 -0.026679 0
0.588918 -0.0243882 0
0.569681 -0.0252788 0
0.549764 -0.0259508 0
0.34896 -0.00710157 0
0.337509 -0.00741325 0
0.325399 -0.0076391 0
0 0 0
0 0 0
0 0 0
0.549764 -0.0259508 0
0.529816 -0.026426 0
0.509562 -0.026679 0
0.325399 -0.0076391 0
0.313174 -0.00780604 0
0.300579 -0.00788482 0
0 0 0
0 0 0
0 0 0
0.763614 -0.0810634 0
0.738399 -0.0807793 0
0.713433 -0.0799923 0
0.655399 -0.0526543 0
0.631664 -0.0525598 0
0.608095 -0.0521079 0
0.509562 -0.026679 0
0.489538 -0.0267455 0
0.469564 -0.0266055 0
0.713433 -0.0799923 0