# vtk DataFile Version 3.0
#This file was generated by the deal.II library on 2025/1/3 at 17:08:11
ASCII
DATASET UNSTRUCTURED_GRID

POINTS 34560 double
1.1 1.1 0
1.03125 1.09531 0
0.9625 1.09063 0
1.09375 1.03125 0
1.02539 1.02686 0
0.957031 1.02246 0
1.0875 0.9625 0
1.01953 0.958398 0
0.951563 0.954297 0
0.9625 1.09063 0
0.89375 1.08594 0
0.825 1.08125 0
0.957031 1.02246 0
0.888672 1.01807 0
0.820312 1.01367 0
0.951563 0.954297 0
0.883594 0.950195 0
0.815625 0.946094 0
1.0875 0.9625 0
1.01953 0.958398 0
0.951563 0.954297 0
1.08125 0.89375 0
1.01367 0.889941 0
0.946094 0.886133 0
1.075 0.825 0
1.00781 0.821484 0
0.940625 0.817969 0
0.951563 0.954297 0
0.883594 0.950195 0
0.815625 0.946094 0
0.946094 0.886133 0
0.878516 0.882324 0
0.810938 0.878516 0
0.940625 0.817969 0
0.873438 0.814453 0
0.80625 0.810937 0
0.825 1.08125 0
0.75625 1.07656 0
0.6875 1.07187 0
0.820312 1.01367 0
0.751953 1.00928 0
0.683594 1.00488 0
0.815625 0.946094 0
0.747656 0.941992 0
0.679688 0.937891 0
0.6875 1.07187 0
0.61875 1.06719 0
0.55 1.0625 0
0.683594 1.00488 0
0.615234 1.00049 0
0.546875 0.996094 0
0.679688 0.937891 0
0.611719 0.933789 0
0.54375 0.929688 0
0.815625 0.946094 0
0.747656 0.941992 0
0.679688 0.937891 0
0.810938 0.878516 0
0.743359 0.874707 0
0.675781 0.870898 0
0.80625 0.810937 0
0.739063 0.807422 0
0.671875 0.803906 0
0.679688 0.937891 0
0.611719 0.933789 0
0.54375 0.929688 0
0.675781 0.870898 0
0.608203 0.86709 0
0.540625 0.863281 0
0.671875 0.803906 0
0.604688 0.800391 0
0.5375 0.796875 0
1.075 0.825 0
1.00781 0.821484 0
0.940625 0.817969 0
1.06875 0.75625 0
1.00195 0.753027 0
0.935156 0.749805 0
1.0625 0.6875 0
0.996094 0.68457 0
0.929688 0.681641 0
0.940625 0.817969 0
0.873438 0.814453 0
0.80625 0.810937 0
0.935156 0.749805 0
0.868359 0.746582 0
0.801563 0.743359 0
0.929688 0.681641 0
0.863281 0.678711 0
0.796875 0.675781 0
1.0625 0.6875 0
0.996094 0.68457 0
0.929688 0.681641 0
1.05625 0.61875 0
0.990234 0.616113 0
0.924219 0.613477 0
1.05 0.55 0
0.984375 0.547656 0
0.91875 0.545313 0
0.929688 0.681641 0
0.863281 0.678711 0
0.796875 0.675781 0
0.924219 0.613477 0
0.858203 0.61084 0
0.792188 0.608203 0
0.91875 0.545313 0
0.853125 0.542969 0
0.7875 0.540625 0
0.80625 0.810937 0
0.739063 0.807422 0
0.671875 0.803906 0
0.801563 0.743359 0
0.734766 0.740137 0
0.667969 0.736914 0
0.796875 0.675781 0
0.730469 0.672852 0
0.664062 0.669922 0
0.671875 0.803906 0
0.604688 0.800391 0
0.5375 0.796875 0
0.667969 0.736914 0
0.601172 0.733691 0
0.534375 0.730469 0
0.664062 0.669922 0
0.597656 0.666992 0
0.53125 0.664062 0
0.796875 0.675781 0
0.730469 0.672852 0
0.664062 0.669922 0
0.792188 0.608203 0
0.726172 0.605566 0
0.660156 0.60293 0
0.7875 0.540625 0
0.721875 0.538281 0
0.65625 0.535937 0
0.664062 0.669922 0
0.597656 0.666992 0
0.53125 0.664062 0
0.660156 0.60293 0
0.594141 0.600293 0
0.528125 0.597656 0
0.65625 0.535937 0
0.590625 0.533594 0
0.525 0.53125 0
0.55 1.0625 0
0.48125 1.05781 0
0.4125 1.05313 0
0.546875 0.996094 0
0.478516 0.991699 0
0.410156 0.987305 0
0.54375 0.929688 0
0.475781 0.925586 0
0.407813 0.921484 0
0.4125 1.05313 0
0.34375 1.04844 0
0.275 1.04375 0
0.410156 0.987305 0
0.341797 0.98291 0
0.273438 0.978516 0
0.407813 0.921484 0
0.339844 0.917383 0
0.271875 0.913281 0
0.54375 0.929688 0
0.475781 0.925586 0
0.407813 0.921484 0
0.540625 0.863281 0
0.473047 0.859473 0
0.405469 0.855664 0
0.5375 0.796875 0
0.470313 0.793359 0
0.403125 0.789844 0
0.407813 0.921484 0
0.339844 0.917383 0
0.271875 0.913281 0
0.405469 0.855664 0
0.337891 0.851855 0
0.270313 0.848047 0
0.403125 0.789844 0
0.335938 0.786328 0
0.26875 0.782813 0
0.275 1.04375 0
0.20625 1.03906 0
0.1375 1.03437 0
0.273438 0.978516 0
0.205078 0.974121 0
0.136719 0.969727 0
0.271875 0.913281 0
0.203906 0.90918 0
0.135938 0.905078 0
0.1375 1.03437 0
0.06875 1.02969 0
0 1.025 0
0.136719 0.969727 0
0.0683594 0.965332 0
0 0.960937 0
0.135938 0.905078 0
0.0679688 0.900977 0
0 0.896875 0
0.271875 0.913281 0
0.203906 0.90918 0
0.135938 0.905078 0
0.270313 0.848047 0
0.202734 0.844238 0
0.135156 0.84043 0
0.26875 0.782813 0
0.201563 0.779297 0
0.134375 0.775781 0
0.135938 0.905078 0
0.0679688 0.900977 0
0 0.896875 0
0.135156 0.84043 0
0.0675781 0.836621 0
0 0.832812 0
0.134375 0.775781 0
0.0671875 0.772266 0
0 0.76875 0
0.5375 0.796875 0
0.470313 0.793359 0
0.403125 0.789844 0
0.534375 0.730469 0
0.467578 0.727246 0
0.400781 0.724023 0
0.53125 0.664062 0
0.464844 0.661133 0
0.398438 0.658203 0
0.403125 0.789844 0
0.335938 0.786328 0
0.26875 0.782813 0
0.400781 0.724023 0
0.333984 0.720801 0
0.267188 0.717578 0
0.398438 0.658203 0
0.332031 0.655273 0
0.265625 0.652344 0
0.53125 0.664062 0
0.464844 0.661133 0
0.398438 0.658203 0
0.528125 0.597656 0
0.462109 0.59502 0
0.396094 0.592383 0
0.525 0.53125 0
0.459375 0.528906 0
0.39375 0.526563 0
0.398438 0.658203 0
0.332031 0.655273 0
0.265625 0.652344 0
0.396094 0.592383 0
0.330078 0.589746 0
0.264062 0.587109 0
0.39375 0.526563 0
0.328125 0.524219 0
0.2625 0.521875 0
0.26875 0.782813 0
0.201563 0.779297 0
0.134375 0.775781 0
0.267188 0.717578 0
0.200391 0.714355 0
0.133594 0.711133 0
0.265625 0.652344 0
0.199219 0.649414 0
0.132812 0.646484 0
0.134375 0.775781 0
0.0671875 0.772266 0
0 0.76875 0
0.133594 0.711133 0
0.0667969 0.70791 0
0 0.704687 0
0.132812 0.646484 0
0.0664062 0.643555 0
0 0.640625 0
0.265625 0.652344 0
0.199219 0.649414 0
0.132812 0.646484 0
0.264062 0.587109 0
0.198047 0.584473 0
0.132031 0.581836 0
0.2625 0.521875 0
0.196875 0.519531 0
0.13125 0.517187 0
0.132812 0.646484 0
0.0664062 0.643555 0
0 0.640625 0
0.132031 0.581836 0
0.0660156 0.579199 0
0 0.576562 0
0.13125 0.517187 0
0.065625 0.514844 0
0 0.5125 0
1.05 0.55 0
0.984375 0.547656 0
0.91875 0.545313 0
1.04375 0.48125 0
0.978516 0.479199 0
0.913281 0.477148 0
1.0375 0.4125 0
0.972656 0.410742 0
0.907813 0.408984 0
0.91875 0.545313 0
0.853125 0.542969 0
0.7875 0.540625 0
0.913281 0.477148 0
0.848047 0.475098 0
0.782813 0.473047 0
0.907813 0.408984 0
0.842969 0.407227 0
0.778125 0.405469 0
1.0375 0.4125 0
0.972656 0.410742 0
0.907813 0.408984 0
1.03125 0.34375 0
0.966797 0.342285 0
0.902344 0.34082 0
1.025 0.275 0
0.960937 0.273828 0
0.896875 0.272656 0
0.907813 0.408984 0
0.842969 0.407227 0
0.778125 0.405469 0
0.902344 0.34082 0
0.837891 0.339355 0
0.773438 0.337891 0
0.896875 0.272656 0
0.832812 0.271484 0
0.76875 0.270313 0
0.7875 0.540625 0
0.721875 0.538281 0
0.65625 0.535937 0
0.782813 0.473047 0
0.717578 0.470996 0
0.652344 0.468945 0
0.778125 0.405469 0
0.713281 0.403711 0
0.648438 0.401953 0
0.65625 0.535937 0
0.590625 0.533594 0
0.525 0.53125 0
0.652344 0.468945 0
0.587109 0.466895 0
0.521875 0.464844 0
0.648438 0.401953 0
0.583594 0.400195 0
0.51875 0.398438 0
0.778125 0.405469 0
0.713281 0.403711 0
0.648438 0.401953 0
0.773438 0.337891 0
0.708984 0.336426 0
0.644531 0.334961 0
0.76875 0.270313 0
0.704687 0.269141 0
0.640625 0.267969 0
0.648438 0.401953 0
0.583594 0.400195 0
0.51875 0.398438 0
0.644531 0.334961 0
0.580078 0.333496 0
0.515625 0.332031 0
0.640625 0.267969 0
0.576562 0.266797 0
0.5125 0.265625 0
1.025 0.275 0
0.960937 0.273828 0
0.896875 0.272656 0
1.01875 0.20625 0
0.955078 0.205371 0
0.891406 0.204492 0
1.0125 0.1375 0
0.949219 0.136914 0
0.885937 0.136328 0
0.896875 0.272656 0
0.832812 0.271484 0
0.76875 0.270313 0
0.891406 0.204492 0
0.827734 0.203613 0
0.764062 0.202734 0
0.885937 0.136328 0
0.822656 0.135742 0
0.759375 0.135156 0
1.0125 0.1375 0
0.949219 0.136914 0
0.885937 0.136328 0
1.00625 0.06875 0
0.943359 0.068457 0
0.880469 0.0681641 0
1 0 0
0.9375 0 0
0.875 0 0
0.885937 0.136328 0
0.822656 0.135742 0
0.759375 0.135156 0
0.880469 0.0681641 0
0.817578 0.0678711 0
0.754687 0.0675781 0
0.875 0 0
0.8125 0 0
0.75 0 0
0.76875 0.270313 0
0.704687 0.269141 0
0.640625 0.267969 0
0.764062 0.202734 0
0.700391 0.201855 0
0.636719 0.200977 0
0.759375 0.135156 0
0.696094 0.13457 0
0.632812 0.133984 0
0.640625 0.267969 0
0.576562 0.266797 0
0.5125 0.265625 0
0.636719 0.200977 0
0.573047 0.200098 0
0.509375 0.199219 0
0.632812 0.133984 0
0.569531 0.133398 0
0.50625 0.132812 0
0.759375 0.135156 0
0.696094 0.13457 0
0.632812 0.133984 0
0.754687 0.0675781 0
0.691797 0.0672852 0
0.628906 0.0669922 0
0.75 0 0
0.6875 0 0
0.625 0 0
0.632812 0.133984 0
0.569531 0.133398 0
0.50625 0.132812 0
0.628906 0.0669922 0
0.566016 0.0666992 0
0.503125 0.0664062 0
0.625 0 0
0.5625 0 0
0.5 0 0
0.525 0.53125 0
0.459375 0.528906 0
0.39375 0.526563 0
0.521875 0.464844 0
0.456641 0.462793 0
0.391406 0.460742 0
0.51875 0.398438 0
0.453906 0.39668 0
0.389063 0.394922 0
0.39375 0.526563 0
0.328125 0.524219 0
0.2625 0.521875 0
0.391406 0.460742 0
0.326172 0.458691 0
0.260938 0.456641 0
0.389063 0.394922 0
0.324219 0.393164 0
0.259375 0.391406 0
0.51875 0.398438 0
0.453906 0.39668 0
0.389063 0.394922 0
0.515625 0.332031 0
0.451172 0.330566 0
0.386719 0.329102 0
0.5125 0.265625 0
0.448437 0.264453 0
0.384375 0.263281 0
0.389063 0.394922 0
0.324219 0.393164 0
0.259375 0.391406 0
0.386719 0.329102 0
0.322266 0.327637 0
0.257812 0.326172 0
0.384375 0.263281 0
0.320312 0.262109 0
0.25625 0.260937 0
0.2625 0.521875 0
0.196875 0.519531 0
0.13125 0.517187 0
0.260938 0.456641 0
0.195703 0.45459 0
0.130469 0.452539 0
0.259375 0.391406 0
0.194531 0.389648 0
0.129688 0.387891 0
0.13125 0.517187 0
0.065625 0.514844 0
0 0.5125 0
0.130469 0.452539 0
0.0652344 0.450488 0
0 0.448437 0
0.129688 0.387891 0
0.0648438 0.386133 0
0 0.384375 0
0.259375 0.391406 0
0.194531 0.389648 0
0.129688 0.387891 0
0.257812 0.326172 0
0.193359 0.324707 0
0.128906 0.323242 0
0.25625 0.260937 0
0.192187 0.259766 0
0.128125 0.258594 0
0.129688 0.387891 0
0.0648438 0.386133 0
0 0.384375 0
0.128906 0.323242 0
0.0644531 0.321777 0
0 0.320312 0
0.128125 0.258594 0
0.0640625 0.257422 0
0 0.25625 0
0.5125 0.265625 0
0.448437 0.264453 0
0.384375 0.263281 0
0.509375 0.199219 0
0.445703 0.19834 0
0.382031 0.197461 0
0.50625 0.132812 0
0.442969 0.132227 0
0.379688 0.131641 0
0.384375 0.263281 0
0.320312 0.262109 0
0.25625 0.260937 0
0.382031 0.197461 0
0.318359 0.196582 0
0.254687 0.195703 0
[...]
POINT_DATA 34560
VECTORS v double
1.19928 -0.243283 0
1.18927 -0.214092 0
1.18105 -0.188049 0
1.16825 -0.230678 0
1.15605 -0.204578 0
1.14611 -0.18043 0
1.13241 -0.217109 0
1.11873 -0.193297 0
1.10696 -0.171083 0
1.18105 -0.188049 0
1.17405 -0.163874 0
1.16849 -0.142216 0
1.14611 -0.18043 0
1.13708 -0.15809 0
1.12992 -0.137751 0
1.10696 -0.171083 0
1.0964 -0.150463 0
1.08754 -0.131491 0
1.13241 -0.217109 0
1.11873 -0.193297 0
1.10696 -0.171083 0
1.09049 -0.201056 0
1.07539 -0.179739 0
1.06227 -0.159721 0
1.04249 -0.185082 0
1.02653 -0.166024 0
1.01243 -0.147982 0
1.10696 -0.171083 0
1.0964 -0.150463 0
1.08754 -0.131491 0
1.06227 -0.159721 0
1.05039 -0.140996 0
1.04023 -0.123663 0
1.01243 -0.147982 0
0.999648 -0.131005 0
0.988523 -0.115181 0
1.16849 -0.142216 0
1.16334 -0.122486 0
1.15923 -0.104837 0
1.12992 -0.137751 0
1.12304 -0.11913 0
1.11756 -0.102333 0
1.08754 -0.131491 0
1.07925 -0.114077 0
1.07235 -0.0982307 0
1.15923 -0.104837 0
1.15514 -0.088933 0
1.15172 -0.074745 0
1.11756 -0.102333 0
1.11206 -0.0870905 0
1.10754 -0.0734161 0
1.07235 -0.0982307 0
1.06567 -0.0838096 0
1.06003 -0.0707836 0
1.08754 -0.131491 0
1.07925 -0.114077 0
1.07235 -0.0982307 0
1.04023 -0.123663 0
1.03081 -0.107631 0
1.02277 -0.0929606 0
0.988523 -0.115181 0
0.978236 -0.100478 0
0.969324 -0.0869453 0
1.07235 -0.0982307 0
1.06567 -0.0838096 0
1.06003 -0.0707836 0
1.02277 -0.0929606 0
1.01516 -0.0795277 0
1.00862 -0.0673293 0
0.969324 -0.0869453 0
0.960983 -0.0745063 0
0.95372 -0.0631595 0
1.04249 -0.185082 0
1.02653 -0.166024 0
1.01243 -0.147982 0
0.989118 -0.168255 0
0.972543 -0.15136 0
0.95775 -0.135266 0
0.93091 -0.151492 0
0.913937 -0.136574 0
0.898637 -0.122285 0
1.01243 -0.147982 0
0.999648 -0.131005 0
0.988523 -0.115181 0
0.95775 -0.135266 0
0.944274 -0.120031 0
0.932401 -0.10576 0
0.898637 -0.122285 0
0.884658 -0.108701 0
0.872218 -0.0959175 0
0.93091 -0.151492 0
0.913937 -0.136574 0
0.898637 -0.122285 0
0.867726 -0.133868 0
0.850485 -0.120899 0
0.834866 -0.108428 0
0.799842 -0.116629 0
0.782525 -0.105465 0
0.766752 -0.0946842 0
0.898637 -0.122285 0
0.884658 -0.108701 0
0.872218 -0.0959175 0
0.834866 -0.108428 0
0.820553 -0.096524 0
0.807736 -0.0852778 0
0.766752 -0.0946842 0
0.752272 -0.0843591 0
0.739239 -0.0745723 0
0.988523 -0.115181 0
0.978236 -0.100478 0
0.969324 -0.0869453 0
0.932401 -0.10576 0
0.921453 -0.0924385 0
0.911853 -0.0801231 0
0.872218 -0.0959175 0
0.860773 -0.0839433 0
0.850648 -0.0728298 0
0.969324 -0.0869453 0
0.960983 -0.0745063 0
0.95372 -0.0631595 0
0.911853 -0.0801231 0
0.902945 -0.0687615 0
0.895122 -0.0583604 0
0.850648 -0.0728298 0
0.841315 -0.0625509 0
0.833067 -0.0531139 0
0.872218 -0.0959175 0
0.860773 -0.0839433 0
0.850648 -0.0728298 0
0.807736 -0.0852778 0
0.79596 -0.0747062 0
0.785483 -0.0648631 0
0.739239 -0.0745723 0
0.72728 -0.0653517 0
0.716596 -0.0567451 0
0.850648 -0.0728298 0
0.841315 -0.0625509 0
0.833067 -0.0531139 0
0.785483 -0.0648631 0
0.775873 -0.0557353 0
0.76735 -0.0473371 0
0.716596 -0.0567451 0
0.70684 -0.0487541 0
0.698168 -0.0413918 0
1.15172 -0.074745 0
1.14815 -0.0620179 0
1.14498 -0.0506518 0
1.10754 -0.0734161 0
1.10291 -0.0610748 0
1.09891 -0.0500006 0
1.06003 -0.0707836 0
1.05447 -0.0589885 0
1.04966 -0.0483543 0
1.14498 -0.0506518 0
1.14161 -0.0404083 0
1.13843 -0.0311631 0
1.09891 -0.0500006 0
1.09478 -0.0399759 0
1.09105 -0.0308904 0
1.04966 -0.0483543 0
1.04489 -0.0386991 0
1.04061 -0.0299178 0
1.06003 -0.0707836 0
1.05447 -0.0589885 0
1.04966 -0.0483543 0
1.00862 -0.0673293 0
1.00236 -0.0562303 0
0.996878 -0.0461823 0
0.95372 -0.0631595 0
0.94688 -0.0528064 0
0.940864 -0.0434021 0
1.04966 -0.0483543 0
1.04489 -0.0386991 0
1.04061 -0.0299178 0
0.996878 -0.0461823 0
0.991617 -0.0370284 0
0.986926 -0.0286741 0
0.940864 -0.0434021 0
0.935206 -0.0348183 0
0.930175 -0.0269696 0
1.13843 -0.0311631 0
1.13509 -0.022664 0
1.13181 -0.0147783 0
1.09105 -0.0308904 0
1.08725 -0.0225189 0
1.08369 -0.0147239 0
1.04061 -0.0299178 0
1.03643 -0.0218058 0
1.0326 -0.0142422 0
1.13181 -0.0147783 0
1.12841 -0.00724969 0
1.125 0 0
1.08369 -0.0147239 0
1.0801 -0.00726661 0
1.07666 0 0
1.0326 -0.0142422 0
1.02886 -0.00700332 0
1.02539 0 0
1.04061 -0.0299178 0
1.03643 -0.0218058 0
1.0326 -0.0142422 0
0.986926 -0.0286741 0
0.982463 -0.0209361 0
0.978435 -0.0137076 0
0.930175 -0.0269696 0
0.925493 -0.0196938 0
0.921314 -0.0128894 0
1.0326 -0.0142422 0
1.02886 -0.00700332 0
1.02539 0 0
0.978435 -0.0137076 0
0.974639 -0.00677166 0
0.971191 0 0
0.921314 -0.0128894 0
0.917476 -0.00635497 0
0.914062 0 0
0.95372 -0.0631595 0
0.94688 -0.0528064 0
0.940864 -0.0434021 0
0.895122 -0.0583604 0
0.887846 -0.048844 0
0.881423 -0.0401781 0
0.833067 -0.0531139 0
0.825469 -0.0444666 0
0.818747 -0.0365793 0
0.940864 -0.0434021 0
0.935206 -0.0348183 0
0.930175 -0.0269696 0
0.881423 -0.0401781 0
0.875478 -0.0322558 0
0.870207 -0.0250042 0
0.818747 -0.0365793 0
0.812603 -0.0293675 0
0.80717 -0.0227657 0
0.833067 -0.0531139 0
0.825469 -0.0444666 0
0.818747 -0.0365793 0
0.76735 -0.0473371 0
0.75956 -0.0396304 0
0.752663 -0.0325944 0
0.698168 -0.0413918 0
0.690296 -0.0346351 0
0.683331 -0.0284664 0
0.818747 -0.0365793 0
0.812603 -0.0293675 0
0.80717 -0.0227657 0
0.752663 -0.0325944 0
0.746425 -0.0261603 0
0.740928 -0.0202753 0
0.683331 -0.0284664 0
0.677088 -0.0228342 0
0.671607 -0.0176926 0
0.930175 -0.0269696 0
0.925493 -0.0196938 0
0.921314 -0.0128894 0
0.870207 -0.0250042 0
0.865389 -0.0182758 0
0.861134 -0.0119781 0
0.80717 -0.0227657 0
0.802278 -0.0166438 0
0.797996 -0.0109147 0
0.921314 -0.0128894 0
0.917476 -0.00635497 0
0.914062 0 0
0.861134 -0.0119781 0
0.857322 -0.00592004 0
0.854004 0 0
0.797996 -0.0109147 0
0.794233 -0.00539844 0
0.791016 0 0
0.80717 -0.0227657 0
0.802278 -0.0166438 0
0.797996 -0.0109147 0
0.740928 -0.0202753 0
0.736041 -0.0148229 0
0.731804 -0.00972472 0
0.671607 -0.0176926 0
0.666789 -0.0129412 0
0.662648 -0.00850661 0
0.797996 -0.0109147 0
0.794233 -0.00539844 0
0.791016 0 0
0.731804 -0.00972472 0
0.728153 -0.00481085 0
0.725098 0 0
0.662648 -0.00850661 0
0.659137 -0.00422841 0
0.65625 0 0
0.799842 -0.116629 0
0.782525 -0.105465 0
0.766752 -0.0946842 0
0.727488 -0.0988529 0
0.710153 -0.0894372 0
0.694327 -0.0803244 0
0.650635 -0.0814622 0
0.633403 -0.0737119 0
0.61763 -0.0661958 0
0.766752 -0.0946842 0
0.752272 -0.0843591 0
0.739239 -0.0745723 0
0.694327 -0.0803244 0
0.679775 -0.0715769 0
0.666643 -0.0632701 0
0.61763 -0.0661958 0
0.60313 -0.0589703 0
0.590023 -0.0521009 0
0.650635 -0.0814622 0
0.633403 -0.0737119 0
0.61763 -0.0661958 0
0.568966 -0.063616 0
0.551924 -0.0575053 0
0.536335 -0.0515826 0
0.480903 -0.0463831 0
0.464421 -0.0418662 0
0.44936 -0.0374967 0
0.61763 -0.0661958 0
0.60313 -0.0589703 0
0.590023 -0.0521009 0
0.536335 -0.0515826 0
0.522012 -0.0458905 0
0.50908 -0.0404836 0
0.44936 -0.0374967 0
0.43556 -0.0333028 0
0.423127 -0.0293291 0
0.739239 -0.0745723 0
0.72728 -0.0653517 0
0.716596 -0.0567451 0
0.666643 -0.0632701 0
0.654614 -0.0554325 0
0.643851 -0.0481074 0
0.590023 -0.0521009 0
0.578051 -0.0456158 0
0.567336 -0.039552 0
0.716596 -0.0567451 0
0.70684 -0.0487541 0
0.698168 -0.0413918 0
0.643851 -0.0481074 0
0.634064 -0.0413011 0
0.625368 -0.0350283 0
0.567336 -0.039552 0
0.557644 -0.0339201 0
0.549047 -0.0287324 0
0.590023 -0.0521009 0
0.578051 -0.0456158 0
0.567336 -0.039552 0
0.50908 -0.0404836 0
0.497308 -0.0353844 0
0.486797 -0.0306228 0
0.423127 -0.0293291 0
0.411864 -0.0255897 0
0.401845 -0.022108 0
0.567336 -0.039552 0
0.557644 -0.0339201 0
0.549047 -0.0287324 0
0.486797 -0.0306228 0
0.477346 -0.0262077 0
0.468998 -0.0221487 0
0.401845 -0.022108 0
0.392897 -0.0188889 0
0.385038 -0.0159394 0
0.480903 -0.0463831 0
0.464421 -0.0418662 0
0.44936 -0.0374967 0
0.383631 -0.0295328 0
0.368421 -0.0265569 0
0.354599 -0.0236955 0
0.272731 -0.014904 0
0.260306 -0.0133669 0
0.249097 -0.011901 0
0.44936 -0.0374967 0
0.43556 -0.0333028 0
0.423127 -0.0293291 0
0.354599 -0.0236955 0
0.341987 -0.0209635 0
0.33069 -0.0183913 0
0.249097 -0.011901 0
0.238936 -0.0105015 0
0.229902 -0.00919429 0
0.272731 -0.014904 0
0.260306 -0.0133669 0
0.249097 -0.011901 0
0.144493 -0.00413672 0
0.137105 -0.00367942 0
0.130536 -0.00325496 0
0 0 0
0 0 0
0 0 0
0.249097 -0.011901 0
0.238936 -0.0105015 0
0.229902 -0.00919429 0
0.130536 -0.00325496 0
0.124603 -0.00284631 0
0.119397 -0.00247457 0
0 0 0
0 0 0
0 0 0
0.423127 -0.0293291 0
0.411864 -0.0255897 0
0.401845 -0.022108 0
0.33069 -0.0183913 0
0.320517 -0.0159851 0
0.311522 -0.0137591 0
0.229902 -0.00919429 0
0.221827 -0.00797586 0
0.21474 -0.00685767 0
0.401845 -0.022108 0
0.392897 -0.0188889 0
0.385038 -0.0159394 0
0.311522 -0.0137591 0
0.303548 -0.0117135 0
0.296595 -0.0098517 0
0.21474 -0.00685767 0
0.208504 -0.00583466 0
0.203103 -0.00491112 0
0.229902 -0.00919429 0
0.221827 -0.00797586 0
0.21474 -0.00685767 0
0.119397 -0.00247457 0
0.114765 -0.00212862 0
0.110741 -0.00181929 0
0 0 0
0 0 0
0 0 0
0.21474 -0.00685767 0
0.208504 -0.00583466 0
0.203103 -0.00491112 0
0.110741 -0.00181929 0
0.107216 -0.00153667 0
0.104181 -0.00128786 0
0 0 0
0 0 0
0 0 0
0.698168 -0.0413918 0
0.690296 -0.0346351 0
0.683331 -0.0284664 0
0.625368 -0.0350283 0
0.617528 -0.0292729 0
0.610609 -0.024023 0
0.549047 -0.0287324 0
0.541353 -0.0239796 0
0.53459 -0.0196517 0
0.683331 -0.0284664 0
0.677088 -0.0228342 0
0.671607 -0.0176926 0
0.610609 -0.024023 0
0.60446 -0.0192376 0
0.599091 -0.0148823 0
0.53459 -0.0196517 0
0.528634 -0.0157191 0
0.523465 -0.0121536 0
0.549047 -0.0287324 0
0.541353 -0.0239796 0
0.53459 -0.0196517 0
0.468998 -0.0221487 0
0.461589 -0.0184378 0
0.455119 -0.0150674 0
0.385038 -0.0159394 0
0.378124 -0.0132512 0
0.372135 -0.0108172 0
0.53459 -0.0196517 0
0.528634 -0.0157191 0
0.523465 -0.0121536 0
0.455119 -0.0150674 0
0.449477 -0.0120135 0
0.444624 -0.00925654 0
0.372135 -0.0108172 0
0.366968 -0.00861823 0
0.36257 -0.00664132 0
0.671607 -0.0176926 0
0.666789 -0.0129412 0
0.662648 -0.00850661 0
0.599091 -0.0148823 0
0.59442 -0.0108702 0
0.590445 -0.00713847 0
0.523465 -0.0121536 0
0.519015 -0.00888547 0
0.515264 -0.00585887 0
0.662648 -0.00850661 0
0.659137 -0.00422841 0
0.65625 0 0
0.590445 -0.00713847 0
0.587132 -0.00353753 0
0.584473 0 0
0.515264 -0.00585887 0
0.512187 -0.00293873 0
0.509766 0 0
0.523465 -0.0121536 0
0.519015 -0.00888547 0
0.515264 -0.00585887 0
0.444624 -0.00925654 0
0.440489 -0.00674101 0
0.437041 -0.00442874 0
0.36257 -0.00664132 0
0.358864 -0.00484714 0
0.355808 -0.00320498 0
0.515264 -0.00585887 0
0.512187 -0.00293873 0
0.509766 0 0
0.437041 -0.00442874 0
0.434258 -0.00220181 0
0.432129 0 0
0.355808 -0.00320498 0
0.353378 -0.0016322 0
0.351562 0 0
0.385038 -0.0159394 0
0.378124 -0.0132512 0
0.372135 -0.0108172 0
0.296595 -0.0098517 0
0.290533 -0.0081643 0
0.285327 -0.00664371 0
0.203103 -0.00491112 0
0.198433 -0.00407796 0
0.194449 -0.00333093 0
0.372135 -0.0108172 0
0.366968 -0.00861823 0
0.36257 -0.00664132 0
0.285327 -0.00664371 0
0.280884 -0.00527302 0
0.277146 -0.00404525 0
0.194449 -0.00333093 0
0.191078 -0.00265764 0
0.188266 -0.00205692 0
0.203103 -0.00491112 0
0.198433 -0.00407796 0
0.194449 -0.00333093 0
0.104181 -0.00128786 0
0.101567 -0.00106411 0
0.0993396 -0.000867015 0
0 0 0
0 0 0
0 0 0
0.194449 -0.00333093 0
0.191078 -0.00265764 0
0.188266 -0.00205692 0
0.0993396 -0.000867015 0
0.0974601 -0.000686731 0
0.0958864 -0.000529145 0
0 0 0
0 0 0
0 0 0
0.36257 -0.00664132 0
0.358864 -0.00484714 0
0.355808 -0.00320498 0
0.277146 -0.00404525 0
0.274035 -0.00292996 0
0.271505 -0.00191338 0
0.188266 -0.00205692 0
0.185955 -0.00151063 0
0.184105 -0.00100471 0
0.355808 -0.00320498 0
0.353378 -0.0016322 0
0.351562 0 0
0.271505 -0.00191338 0
0.269516 -0.000937494 0
0.268066 0 0
0.184105 -0.00100471 0
0.182668 -0.000523319 0
0.181641 0 0
0.188266 -0.00205692 0
0.185955 -0.00151063 0
0.184105 -0.00100471 0
0.0958864 -0.000529145 0
0.0946 -0.000385398 0
0.0935898 -0.000248835 0
0 0 0
0 0 0
0 0 0
0.184105 -0.00100471 0
0.182668 -0.000523319 0
0.181641 0 0
0.0935898 -0.000248835 0
0.0928056 -9.81172e-05 0
0.0922852 0 0
0 0 0
0 0 0
0 0 0
1.63031 -0.478673 0
1.5905 -0.489621 0
1.54936 -0.495708 0
1.57728 -0.42981 0
1.54029 -0.440069 0
1.50227 -0.446059 0
1.51872 -0.385314 0
1.48521 -0.395054 0
1.45071 -0.401118 0
1.54936 -0.495708 0
1.50867 -0.496453 0
1.46763 -0.492265 0
1.50227 -0.446059 0
1.46467 -0.447757 0
1.42684 -0.445147 0
1.45071 -0.401118 0
1.41667 -0.403583 0
1.3824 -0.402269 0
1.51872 -0.385314 0
1.48521 -0.395054 0
1.45071 -0.401118 0
1.46127 -0.346348 0
1.43045 -0.354542 0
1.3988 -0.359681 0
1.40008 -0.308135 0
1.37074 -0.315541 0
1.34073 -0.320323 0
1.45071 -0.401118 0
1.41667 -0.403583 0
1.3824 -0.402269 0
1.3988 -0.359681 0
1.36738 -0.36178 0
1.33572 -0.360743 0
1.34073 -0.320323 0
1.31098 -0.322535 0
1.28109 -0.322068 0
1.46763 -0.492265 0
1.42963 -0.483408 0
1.39243 -0.47002 0
1.42684 -0.445147 0
1.39159 -0.438472 0
1.35707 -0.428182 0
1.3824 -0.402269 0
1.35019 -0.39753 0
1.31861 -0.389469 0
1.39243 -0.47002 0
1.35944 -0.453516 0
1.32812 -0.433794 0
1.35707 -0.428182 0
1.32609 -0.414809 0
1.29664 -0.398661 0
1.31861 -0.389469 0
1.28983 -0.37858 0
1.26235 -0.365077 0
1.3824 -0.402269 0
1.35019 -0.39753 0
1.31861 -0.389469 0
1.33572 -0.360743 0
1.30559 -0.356808 0
1.27589 -0.35006 0
1.28109 -0.322068 0
1.25249 -0.319127 0
1.22438 -0.313775 0
1.31861 -0.389469 0
1.28983 -0.37858 0
1.26235 -0.365077 0
1.27589 -0.35006 0
1.24843 -0.340937 0
1.22205 -0.329573 0
1.22438 -0.313775 0
1.19817 -0.306334 0
1.17301 -0.296911 0
1.40008 -0.308135 0
1.37074 -0.315541 0
1.34073 -0.320323 0
1.3348 -0.273197 0
1.30697 -0.280059 0
1.27856 -0.284593 0
1.26826 -0.239592 0
1.2417 -0.245962 0
1.21458 -0.250302 0
1.34073 -0.320323 0
1.31098 -0.322535 0
1.28109 -0.322068 0
1.27856 -0.284593 0
1.25045 -0.286851 0
1.22225 -0.286768 0
1.21458 -0.250302 0
1.18773 -0.252656 0
1.16079 -0.252965 0
1.26826 -0.239592 0
1.2417 -0.245962 0
1.21458 -0.250302 0
1.19998 -0.207628 0
1.17431 -0.213358 0
1.14812 -0.217328 0
1.12887 -0.176735 0
1.10382 -0.181975 0
1.07827 -0.185703 0
1.21458 -0.250302 0
1.18773 -0.252656 0
1.16079 -0.252965 0
1.14812 -0.217328 0
1.12216 -0.219591 0
1.0961 -0.220091 0
1.07827 -0.185703 0
1.05294 -0.18797 0
1.02753 -0.188722 0
1.28109 -0.322068 0
1.25249 -0.319127 0
1.22438 -0.313775 0
1.22225 -0.286768 0
1.19518 -0.284514 0
1.16856 -0.280133 0
1.16079 -0.252965 0
1.1348 -0.251371 0
1.10921 -0.247905 0
1.22438 -0.313775 0
1.19817 -0.306334 0
1.17301 -0.296911 0
1.16856 -0.280133 0
1.14354 -0.273897 0
1.11947 -0.265893 0
1.10921 -0.247905 0
1.08499 -0.242798 0
1.06162 -0.236119 0
1.16079 -0.252965 0
1.1348 -0.251371 0
1.10921 -0.247905 0
1.0961 -0.220091 0
1.07085 -0.218965 0
1.04598 -0.216218 0
1.02753 -0.188722 0
1.00284 -0.188073 0
0.978514 -0.186025 0
1.10921 -0.247905 0
1.08499 -0.242798 0
1.06162 -0.236119 0
1.04598 -0.216218 0
1.02231 -0.212057 0
0.999429 -0.206517 0
0.978514 -0.186025 0
0.955242 -0.182741 0
0.932731 -0.178252 0
1.32812 -0.433794 0
1.30153 -0.412348 0
1.27737 -0.388712 0
1.29664 -0.398661 0
1.27128 -0.380407 0
1.24807 -0.360517 0
1.26235 -0.365077 0
1.23811 -0.349635 0
1.21571 -0.332511 0
1.27737 -0.388712 0
1.25718 -0.36459 0
1.23964 -0.339696 0
1.24807 -0.360517 0
1.22833 -0.339659 0
1.21102 -0.317917 0
1.21571 -0.332511 0
1.1962 -0.314253 0
1.17878 -0.295068 0
1.26235 -0.365077 0
1.23811 -0.349635 0
1.21571 -0.332511 0
1.22205 -0.329573 0
1.19837 -0.316496 0
1.1763 -0.301859 0
1.17301 -0.296911 0
1.15017 -0.285901 0
1.12883 -0.273474 0
1.21571 -0.332511 0
1.1962 -0.314253 0
1.17878 -0.295068 0
1.1763 -0.301859 0
1.15678 -0.286185 0
1.13918 -0.269644 0
1.12883 -0.273474 0
1.10973 -0.260032 0
1.09239 -0.245718 0
1.23964 -0.339696 0
1.22564 -0.31499 0
1.21448 -0.29022 0
1.21102 -0.317917 0
1.19682 -0.295859 0
1.18511 -0.273786 0
1.17878 -0.295068 0
1.164 -0.275503 0
1.15142 -0.255764 0
1.21448 -0.29022 0
1.20573 -0.266289 0
1.19928 -0.243283 0
1.18511 -0.273786 0
1.17553 -0.252058 0
1.16825 -0.230678 0
1.15142 -0.255764 0
1.14087 -0.236219 0
1.13241 -0.217109 0
1.17878 -0.295068 0
1.164 -0.275503 0
1.15142 -0.255764 0
1.13918 -0.269644 0
1.12402 -0.252669 0
1.11092 -0.235397 0
1.09239 -0.245718 0
1.07722 -0.230875 0
1.06391 -0.215662 0
1.15142 -0.255764 0
1.14087 -0.236219 0
1.13241 -0.217109 0
1.11092 -0.235397 0
1.09972 -0.218145 0
1.09049 -0.201056 0
1.06391 -0.215662 0
1.0523 -0.200344 0
1.04249 -0.185082 0
1.17301 -0.296911 0
1.15017 -0.285901 0
1.12883 -0.273474 0
1.11947 -0.265893 0
1.09737 -0.25647 0
1.07661 -0.245757 0
1.06162 -0.236119 0
1.03996 -0.228156 0
1.01952 -0.219023 0
1.12883 -0.273474 0
1.10973 -0.260032 0
1.09239 -0.245718 0
1.07661 -0.245757 0
1.05778 -0.234101 0
1.04052 -0.221613 0
1.01952 -0.219023 0
1.00081 -0.209008 0
0.983556 -0.19822 0
1.06162 -0.236119 0
1.03996 -0.228156 0
1.01952 -0.219023 0
0.999429 -0.206517 0
0.978048 -0.199849 0
0.957825 -0.192132 0
0.932731 -0.178252 0
0.911542 -0.172758 0
0.891443 -0.166332 0
1.01952 -0.219023 0
1.00081 -0.209008 0
0.983556 -0.19822 0
0.957825 -0.192132 0
0.93914 -0.183614 0
0.921837 -0.17438 0
0.891443 -0.166332 0
0.872729 -0.159174 0
0.855318 -0.15136 0
1.09239 -0.245718 0
1.07722 -0.230875 0
1.06391 -0.215662 0
1.04052 -0.221613 0
1.02518 -0.208616 0
1.01156 -0.195255 0
0.983556 -0.19822 0
0.968053 -0.186929 0
0.954152 -0.175264 0
1.06391 -0.215662 0
1.0523 -0.200344 0
1.04249 -0.185082 0
1.01156 -0.195255 0
0.9995 -0.181772 0
0.989118 -0.168255 0
0.954152 -0.175264 0
0.941739 -0.163418 0
0.93091 -0.151492 0
0.983556 -0.19822 0
0.968053 -0.186929 0
0.954152 -0.175264 0
0.921837 -0.17438 0
0.906115 -0.164662 0
0.891899 -0.154565 0
0.855318 -0.15136 0
0.839354 -0.143084 0
0.824822 -0.134448 0
0.954152 -0.175264 0
0.941739 -0.163418 0
0.93091 -0.151492 0
0.891899 -0.154565 0
0.879068 -0.144269 0
0.867726 -0.133868 0
0.824822 -0.134448 0
0.81161 -0.125601 0
0.799842 -0.116629 0
1.12887 -0.176735 0
1.10382 -0.181975 0
1.07827 -0.185703 0
1.05573 -0.147542 0
1.03116 -0.152235 0
1.00611 -0.155631 0
0.979583 -0.118929 0
0.955402 -0.123134 0
0.930702 -0.126245 0
1.07827 -0.185703 0
1.05294 -0.18797 0
1.02753 -0.188722 0
1.00611 -0.155631 0
0.981232 -0.157771 0
0.956281 -0.158614 0
0.930702 -0.126245 0
0.906142 -0.128302 0
0.881474 -0.129265 0
0.979583 -0.118929 0
0.955402 -0.123134 0
0.930702 -0.126245 0
0.897776 -0.091415 0
0.874173 -0.0950352 0
0.849989 -0.0977615 0
0.803303 -0.0650348 0
0.780875 -0.068016 0
0.757721 -0.0703093 0
0.930702 -0.126245 0
0.906142 -0.128302 0
0.881474 -0.129265 0
0.849989 -0.0977615 0
0.825853 -0.0996261 0
0.801548 -0.100598 0
0.757721 -0.0703093 0
0.734495 -0.0719417 0
0.710996 -0.0728824 0
1.02753 -0.188722 0
1.00284 -0.188073 0
0.978514 -0.186025 0
0.956281 -0.158614 0
0.93195 -0.158256 0
0.907954 -0.156698 0
0.881474 -0.129265 0
0.857339 -0.12922 0
0.833507 -0.128163 0
0.978514 -0.186025 0
0.955242 -0.182741 0
0.932731 -0.178252 0
0.907954 -0.156698 0
0.884886 -0.154084 0
0.86253 -0.150434 0
0.833507 -0.128163 0
0.8105 -0.126213 0
0.788165 -0.123387 0
0.881474 -0.129265 0
0.857339 -0.12922 0
0.833507 -0.128163 0
0.801548 -0.100598 0
0.777671 -0.100747 0
0.754039 -0.100068 0
0.710996 -0.0728824 0
0.687797 -0.0731885 0
0.66476 -0.0728509 0
0.833507 -0.128163 0
0.8105 -0.126213 0
0.788165 -0.123387 0
0.754039 -0.100068 0
0.731124 -0.0986598 0
0.708827 -0.0965322 0
0.66476 -0.0728509 0
0.642316 -0.0719473 0
0.620419 -0.0704836 0
0.803303 -0.0650348 0
0.780875 -0.068016 0
0.757721 -0.0703093 0
0.684724 -0.0410224 0
0.664669 -0.0431914 0
0.643732 -0.044883 0
0.523056 -0.0198249 0
0.507215 -0.0211044 0
0.490406 -0.0221207 0
0.757721 -0.0703093 0
0.734495 -0.0719417 0
0.710996 -0.0728824 0
0.643732 -0.044883 0
0.622528 -0.0461167 0
0.60091 -0.0468653 0
0.490406 -0.0221207 0
0.473174 -0.0228955 0
0.455435 -0.0233991 0
0.523056 -0.0198249 0
0.507215 -0.0211044 0
0.490406 -0.0221207 0
0.298436 -0.00574817 0
0.289129 -0.0061495 0
0.279065 -0.00645673 0
0 0 0
0 0 0
0 0 0
0.490406 -0.0221207 0
0.473174 -0.0228955 0
0.455435 -0.0233991 0
0.279065 -0.00645673 0
0.268636 -0.00669897 0
0.257784 -0.00684109 0
0 0 0
0 0 0
0 0 0
0.710996 -0.0728824 0
0.687797 -0.0731885 0
0.66476 -0.0728509 0
0.60091 -0.0468653 0