# vtk DataFile Version 3.0
#This file was generated by the deal.II library on 2025/1/3 at 17:04:13
ASCII
DATASET UNSTRUCTURED_GRID

POINTS 34560 double
1.1 1.1 0
1.03125 1.09531 0
0.9625 1.09063 0
1.09375 1.03125 0
1.02539 1.02686 0
0.957031 1.02246 0
1.0875 0.9625 0
1.01953 0.958398 0
0.951563 0.954297 0
0.9625 1.09063 0
0.89375 1.08594 0
0.825 1.08125 0
0.957031 1.02246 0
0.888672 1.01807 0
0.820312 1.01367 0
0.951563 0.954297 0
0.883594 0.950195 0
0.815625 0.946094 0
1.0875 0.9625 0
1.01953 0.958398 0
0.951563 0.954297 0
1.08125 0.89375 0
1.01367 0.889941 0
0.946094 0.886133 0
1.075 0.825 0
1.00781 0.821484 0
0.940625 0.817969 0
0.951563 0.954297 0
0.883594 0.950195 0
0.815625 0.946094 0
0.946094 0.886133 0
0.878516 0.882324 0
0.810938 0.878516 0
0.940625 0.817969 0
0.873438 0.814453 0
0.80625 0.810937 0
0.825 1.08125 0
0.75625 1.07656 0
0.6875 1.07187 0
0.820312 1.01367 0
0.751953 1.00928 0
0.683594 1.00488 0
0.815625 0.946094 0
0.747656 0.941992 0
0.679688 0.937891 0
0.6875 1.07187 0
0.61875 1.06719 0
0.55 1.0625 0
0.683594 1.00488 0
0.615234 1.00049 0
0.546875 0.996094 0
0.679688 0.937891 0
0.611719 0.933789 0
0.54375 0.929688 0
0.815625 0.946094 0
0.747656 0.941992 0
0.679688 0.937891 0
0.810938 0.878516 0
0.743359 0.874707 0
0.675781 0.870898 0
0.80625 0.810937 0
0.739063 0.807422 0
0.671875 0.803906 0
0.679688 0.937891 0
0.611719 0.933789 0
0.54375 0.929688 0
0.675781 0.870898 0
0.608203 0.86709 0
0.540625 0.863281 0
0.671875 0.803906 0
0.604688 0.800391 0
0.5375 0.796875 0
1.075 0.825 0
1.00781 0.821484 0
0.940625 0.817969 0
1.06875 0.75625 0
1.00195 0.753027 0
0.935156 0.749805 0
1.0625 0.6875 0
0.996094 0.68457 0
0.929688 0.681641 0
0.940625 0.817969 0
0.873438 0.814453 0
0.80625 0.810937 0
0.935156 0.749805 0
0.868359 0.746582 0
0.801563 0.743359 0
0.929688 0.681641 0
0.863281 0.678711 0
0.796875 0.675781 0
1.0625 0.6875 0
0.996094 0.68457 0
0.929688 0.681641 0
1.05625 0.61875 0
0.990234 0.616113 0
0.924219 0.613477 0
1.05 0.55 0
0.984375 0.547656 0
0.91875 0.545313 0
0.929688 0.681641 0
0.863281 0.678711 0
0.796875 0.675781 0
0.924219 0.613477 0
0.858203 0.61084 0
0.792188 0.608203 0
0.91875 0.545313 0
0.853125 0.542969 0
0.7875 0.540625 0
0.80625 0.810937 0
0.739063 0.807422 0
0.671875 0.803906 0
0.801563 0.743359 0
0.734766 0.740137 0
0.667969 0.736914 0
0.796875 0.675781 0
0.730469 0.672852 0
0.664062 0.669922 0
0.671875 0.803906 0
0.604688 0.800391 0
0.5375 0.796875 0
0.667969 0.736914 0
0.601172 0.733691 0
0.534375 0.730469 0
0.664062 0.669922 0
0.597656 0.666992 0
0.53125 0.664062 0
0.796875 0.675781 0
0.730469 0.672852 0
0.664062 0.669922 0
0.792188 0.608203 0
0.726172 0.605566 0
0.660156 0.60293 0
0.7875 0.540625 0
0.721875 0.538281 0
0.65625 0.535937 0
0.664062 0.669922 0
0.597656 0.666992 0
0.53125 0.664062 0
0.660156 0.60293 0
0.594141 0.600293 0
0.528125 0.597656 0
0.65625 0.535937 0
0.590625 0.533594 0
0.525 0.53125 0
0.55 1.0625 0
0.48125 1.05781 0
0.4125 1.05313 0
0.546875 0.996094 0
0.478516 0.991699 0
0.410156 0.987305 0
0.54375 0.929688 0
0.475781 0.925586 0
0.407813 0.921484 0
0.4125 1.05313 0
0.34375 1.04844 0
0.275 1.04375 0
0.410156 0.987305 0
0.341797 0.98291 0
0.273438 0.978516 0
0.407813 0.921484 0
0.339844 0.917383 0
0.271875 0.913281 0
0.54375 0.929688 0
0.475781 0.925586 0
0.407813 0.921484 0
0.540625 0.863281 0
0.473047 0.859473 0
0.405469 0.855664 0
0.5375 0.796875 0
0.470313 0.793359 0
0.403125 0.789844 0
0.407813 0.921484 0
0.339844 0.917383 0
0.271875 0.913281 0
0.405469 0.855664 0
0.337891 0.851855 0
0.270313 0.848047 0
0.403125 0.789844 0
0.335938 0.786328 0
0.26875 0.782813 0
0.275 1.04375 0
0.20625 1.03906 0
0.1375 1.03437 0
0.273438 0.978516 0
0.205078 0.974121 0
0.136719 0.969727 0
0.271875 0.913281 0
0.203906 0.90918 0
0.135938 0.905078 0
0.1375 1.03437 0
0.06875 1.02969 0
0 1.025 0
0.136719 0.969727 0
0.0683594 0.965332 0
0 0.960937 0
0.135938 0.905078 0
0.0679688 0.900977 0
0 0.896875 0
0.271875 0.913281 0
0.203906 0.90918 0
0.135938 0.905078 0
0.270313 0.848047 0
0.202734 0.844238 0
0.135156 0.84043 0
0.26875 0.782813 0
0.201563 0.779297 0
0.134375 0.775781 0
0.135938 0.905078 0
0.0679688 0.900977 0
0 0.896875 0
0.135156 0.84043 0
0.0675781 0.836621 0
0 0.832812 0
0.134375 0.775781 0
0.0671875 0.772266 0
0 0.76875 0
0.5375 0.796875 0
0.470313 0.793359 0
0.403125 0.789844 0
0.534375 0.730469 0
0.467578 0.727246 0
0.400781 0.724023 0
0.53125 0.664062 0
0.464844 0.661133 0
0.398438 0.658203 0
0.403125 0.789844 0
0.335938 0.786328 0
0.26875 0.782813 0
0.400781 0.724023 0
0.333984 0.720801 0
0.267188 0.717578 0
0.398438 0.658203 0
0.332031 0.655273 0
0.265625 0.652344 0
0.53125 0.664062 0
0.464844 0.661133 0
0.398438 0.658203 0
0.528125 0.597656 0
0.462109 0.59502 0
0.396094 0.592383 0
0.525 0.53125 0
0.459375 0.528906 0
0.39375 0.526563 0
0.398438 0.658203 0
0.332031 0.655273 0
0.265625 0.652344 0
0.396094 0.592383 0
0.330078 0.589746 0
0.264062 0.587109 0
0.39375 0.526563 0
0.328125 0.524219 0
0.2625 0.521875 0
0.26875 0.782813 0
0.201563 0.779297 0
0.134375 0.775781 0
0.267188 0.717578 0
0.200391 0.714355 0
0.133594 0.711133 0
0.265625 0.652344 0
0.199219 0.649414 0
0.132812 0.646484 0
0.134375 0.775781 0
0.0671875 0.772266 0
0 0.76875 0
0.133594 0.711133 0
0.0667969 0.70791 0
0 0.704687 0
0.132812 0.646484 0
0.0664062 0.643555 0
0 0.640625 0
0.265625 0.652344 0
0.199219 0.649414 0
0.132812 0.646484 0
0.264062 0.587109 0
0.198047 0.584473 0
0.132031 0.581836 0
0.2625 0.521875 0
0.196875 0.519531 0
0.13125 0.517187 0
0.132812 0.646484 0
0.0664062 0.643555 0
0 0.640625 0
0.132031 0.581836 0
0.0660156 0.579199 0
0 0.576562 0
0.13125 0.517187 0
0.065625 0.514844 0
0 0.5125 0
1.05 0.55 0
0.984375 0.547656 0
0.91875 0.545313 0
1.04375 0.48125 0
0.978516 0.479199 0
0.913281 0.477148 0
1.0375 0.4125 0
0.972656 0.410742 0
0.907813 0.408984 0
0.91875 0.545313 0
0.853125 0.542969 0
0.7875 0.540625 0
0.913281 0.477148 0
0.848047 0.475098 0
0.782813 0.473047 0
0.907813 0.408984 0
0.842969 0.407227 0
0.778125 0.405469 0
1.0375 0.4125 0
0.972656 0.410742 0
0.907813 0.408984 0
1.03125 0.34375 0
0.966797 0.342285 0
0.902344 0.34082 0
1.025 0.275 0
0.960937 0.273828 0
0.896875 0.272656 0
0.907813 0.408984 0
0.842969 0.407227 0
0.778125 0.405469 0
0.902344 0.34082 0
0.837891 0.339355 0
0.773438 0.337891 0
0.896875 0.272656 0
0.832812 0.271484 0
0.76875 0.270313 0
0.7875 0.540625 0
0.721875 0.538281 0
0.65625 0.535937 0
0.782813 0.473047 0
0.717578 0.470996 0
0.652344 0.468945 0
0.778125 0.405469 0
0.713281 0.403711 0
0.648438 0.401953 0
0.65625 0.535937 0
0.590625 0.533594 0
0.525 0.53125 0
0.652344 0.468945 0
0.587109 0.466895 0
0.521875 0.464844 0
0.648438 0.401953 0
0.583594 0.400195 0
0.51875 0.398438 0
0.778125 0.405469 0
0.713281 0.403711 0
0.648438 0.401953 0
0.773438 0.337891 0
0.708984 0.336426 0
0.644531 0.334961 0
0.76875 0.270313 0
0.704687 0.269141 0
0.640625 0.267969 0
0.648438 0.401953 0
0.583594 0.400195 0
0.51875 0.398438 0
0.644531 0.334961 0
0.580078 0.333496 0
0.515625 0.332031 0
0.640625 0.267969 0
0.576562 0.266797 0
0.5125 0.265625 0
1.025 0.275 0
0.960937 0.273828 0
0.896875 0.272656 0
1.01875 0.20625 0
0.955078 0.205371 0
0.891406 0.204492 0
1.0125 0.1375 0
0.949219 0.136914 0
0.885937 0.136328 0
0.896875 0.272656 0
0.832812 0.271484 0
0.76875 0.270313 0
0.891406 0.204492 0
0.827734 0.203613 0
0.764062 0.202734 0
0.885937 0.136328 0
0.822656 0.135742 0
0.759375 0.135156 0
1.0125 0.1375 0
0.949219 0.136914 0
0.885937 0.136328 0
1.00625 0.06875 0
0.943359 0.068457 0
0.880469 0.0681641 0
1 0 0
0.9375 0 0
0.875 0 0
0.885937 0.136328 0
0.822656 0.135742 0
0.759375 0.135156 0
0.880469 0.0681641 0
0.817578 0.0678711 0
0.754687 0.0675781 0
0.875 0 0
0.8125 0 0
0.75 0 0
0.76875 0.270313 0
0.704687 0.269141 0
0.640625 0.267969 0
0.764062 0.202734 0
0.700391 0.201855 0
0.636719 0.200977 0
0.759375 0.135156 0
0.696094 0.13457 0
0.632812 0.133984 0
0.640625 0.267969 0
0.576562 0.266797 0
0.5125 0.265625 0
0.636719 0.200977 0
0.573047 0.200098 0
0.509375 0.199219 0
0.632812 0.133984 0
0.569531 0.133398 0
0.50625 0.132812 0
0.759375 0.135156 0
0.696094 0.13457 0
0.632812 0.133984 0
0.754687 0.0675781 0
0.691797 0.0672852 0
0.628906 0.0669922 0
0.75 0 0
0.6875 0 0
0.625 0 0
0.632812 0.133984 0
0.569531 0.133398 0
0.50625 0.132812 0
0.628906 0.0669922 0
0.566016 0.0666992 0
0.503125 0.0664062 0
0.625 0 0
0.5625 0 0
0.5 0 0
0.525 0.53125 0
0.459375 0.528906 0
0.39375 0.526563 0
0.521875 0.464844 0
0.456641 0.462793 0
0.391406 0.460742 0
0.51875 0.398438 0
0.453906 0.39668 0
0.389063 0.394922 0
0.39375 0.526563 0
0.328125 0.524219 0
0.2625 0.521875 0
0.391406 0.460742 0
0.326172 0.458691 0
0.260938 0.456641 0
0.389063 0.394922 0
0.324219 0.393164 0
0.259375 0.391406 0
0.51875 0.398438 0
0.453906 0.39668 0
0.389063 0.394922 0
0.515625 0.332031 0
0.451172 0.330566 0
0.386719 0.329102 0
0.5125 0.265625 0
0.448437 0.264453 0
0.384375 0.263281 0
0.389063 0.394922 0
0.324219 0.393164 0
0.259375 0.391406 0
0.386719 0.329102 0
0.322266 0.327637 0
0.257812 0.326172 0
0.384375 0.263281 0
0.320312 0.262109 0
0.25625 0.260937 0
0.2625 0.521875 0
0.196875 0.519531 0
0.13125 0.517187 0
0.260938 0.456641 0
0.195703 0.45459 0
0.130469 0.452539 0
0.259375 0.391406 0
0.194531 0.389648 0
0.129688 0.387891 0
0.13125 0.517187 0
0.065625 0.514844 0
0 0.5125 0
0.130469 0.452539 0
0.0652344 0.450488 0
0 0.448437 0
0.129688 0.387891 0
0.0648438 0.386133 0
0 0.384375 0
0.259375 0.391406 0
0.194531 0.389648 0
0.129688 0.387891 0
0.257812 0.326172 0
0.193359 0.324707 0
0.128906 0.323242 0
0.25625 0.260937 0
0.192187 0.259766 0
0.128125 0.258594 0
0.129688 0.387891 0
0.0648438 0.386133 0
0 0.384375 0
0.128906 0.323242 0
0.0644531 0.321777 0
0 0.320312 0
0.128125 0.258594 0
0.0640625 0.257422 0
0 0.25625 0
0.5125 0.265625 0
0.448437 0.264453 0
0.384375 0.263281 0
0.509375 0.199219 0
0.445703 0.19834 0
0.382031 0.197461 0
0.50625 0.132812 0
0.442969 0.132227 0
0.379688 0.131641 0
0.384375 0.263281 0
0.320312 0.262109 0
0.25625 0.260937 0
0.382031 0.197461 0
0.318359 0.196582 0
0.254687 0.195703 0
[...]
POINT_DATA 34560
VECTORS v double
1.24741 -0.31362 0
1.23131 -0.282607 0
1.21737 -0.253982 0
1.21453 -0.294644 0
1.19661 -0.267091 0
1.18116 -0.240805 0
1.17667 -0.275327 0
1.1576 -0.250406 0
1.14067 -0.226387 0
1.21737 -0.253982 0
1.20513 -0.226645 0
1.19475 -0.201247 0
1.18116 -0.240805 0
1.16715 -0.21572 0
1.15535 -0.192092 0
1.14067 -0.226387 0
1.12539 -0.203384 0
1.11213 -0.181479 0
1.17667 -0.275327 0
1.1576 -0.250406 0
1.14067 -0.226387 0
1.13298 -0.253703 0
1.11281 -0.231521 0
1.09479 -0.209994 0
1.08318 -0.232535 0
1.06243 -0.212855 0
1.04368 -0.193579 0
1.14067 -0.226387 0
1.12539 -0.203384 0
1.11213 -0.181479 0
1.09479 -0.209994 0
1.07841 -0.189204 0
1.06404 -0.169283 0
1.04368 -0.193579 0
1.02661 -0.174832 0
1.01147 -0.156737 0
1.19475 -0.201247 0
1.18522 -0.177331 0
1.17719 -0.155074 0
1.15535 -0.192092 0
1.14426 -0.169706 0
1.13499 -0.148748 0
1.11213 -0.181479 0
1.09983 -0.160677 0
1.08929 -0.141041 0
1.17719 -0.155074 0
1.16953 -0.134259 0
1.16304 -0.114883 0
1.13499 -0.148748 0
1.12606 -0.129007 0
1.11856 -0.110573 0
1.08929 -0.141041 0
1.0793 -0.122502 0
1.07078 -0.105094 0
1.11213 -0.181479 0
1.09983 -0.160677 0
1.08929 -0.141041 0
1.06404 -0.169283 0
1.05075 -0.150222 0
1.03922 -0.132131 0
1.01147 -0.156737 0
0.997481 -0.139332 0
0.985208 -0.12272 0
1.08929 -0.141041 0
1.0793 -0.122502 0
1.07078 -0.105094 0
1.03922 -0.132131 0
1.02841 -0.114958 0
1.01907 -0.098757 0
0.985208 -0.12272 0
0.973792 -0.106888 0
0.963836 -0.0918913 0
1.08318 -0.232535 0
1.06243 -0.212855 0
1.04368 -0.193579 0
1.02813 -0.210806 0
1.00702 -0.193487 0
0.987834 -0.176389 0
0.968511 -0.189428 0
0.947225 -0.174253 0
0.92774 -0.159164 0
1.04368 -0.193579 0
1.02661 -0.174832 0
1.01147 -0.156737 0
0.987834 -0.176389 0
0.970272 -0.159637 0
0.954565 -0.143372 0
0.92774 -0.159164 0
0.909839 -0.144299 0
0.893716 -0.129784 0
0.968511 -0.189428 0
0.947225 -0.174253 0
0.92774 -0.159164 0
0.90428 -0.167298 0
0.882891 -0.154204 0
0.863239 -0.141115 0
0.835648 -0.145744 0
0.814315 -0.134576 0
0.794629 -0.123347 0
0.92774 -0.159164 0
0.909839 -0.144299 0
0.893716 -0.129784 0
0.863239 -0.141115 0
0.845121 -0.128147 0
0.828731 -0.115419 0
0.794629 -0.123347 0
0.776431 -0.112162 0
0.759901 -0.10113 0
1.01147 -0.156737 0
0.997481 -0.139332 0
0.985208 -0.12272 0
0.954565 -0.143372 0
0.940064 -0.127648 0
0.927235 -0.112564 0
0.893716 -0.129784 0
0.87884 -0.115687 0
0.865592 -0.102104 0
0.985208 -0.12272 0
0.973792 -0.106888 0
0.963836 -0.0918913 0
0.927235 -0.112564 0
0.915363 -0.098135 0
0.904938 -0.0844182 0
0.865592 -0.102104 0
0.853386 -0.0890689 0
0.842614 -0.0766372 0
0.893716 -0.129784 0
0.87884 -0.115687 0
0.865592 -0.102104 0
0.828731 -0.115419 0
0.813609 -0.102996 0
0.800088 -0.0909734 0
0.759901 -0.10113 0
0.74465 -0.0903193 0
0.73097 -0.079814 0
0.865592 -0.102104 0
0.853386 -0.0890689 0
0.842614 -0.0766372 0
0.800088 -0.0909734 0
0.787669 -0.0793923 0
0.776679 -0.0683137 0
0.73097 -0.079814 0
0.718443 -0.0696654 0
0.707338 -0.0599305 0
1.16304 -0.114883 0
1.15672 -0.0968129 0
1.15128 -0.079989 0
1.11856 -0.110573 0
1.11125 -0.0932875 0
1.10504 -0.077162 0
1.07078 -0.105094 0
1.06264 -0.0887341 0
1.05566 -0.073423 0
1.15128 -0.079989 0
1.14593 -0.0643086 0
1.14121 -0.0496869 0
1.10504 -0.077162 0
1.09899 -0.06208 0
1.09376 -0.047998 0
1.05566 -0.073423 0
1.04902 -0.0590798 0
1.04328 -0.0456652 0
1.07078 -0.105094 0
1.06264 -0.0887341 0
1.05566 -0.073423 0
1.01907 -0.098757 0
1.0103 -0.0834733 0
1.00272 -0.069125 0
0.963836 -0.0918913 0
0.954575 -0.077709 0
0.946523 -0.0643585 0
1.05566 -0.073423 0
1.04902 -0.0590798 0
1.04328 -0.0456652 0
1.00272 -0.069125 0
0.995635 -0.0556542 0
0.989515 -0.04303 0
0.946523 -0.0643585 0
0.939107 -0.0518087 0
0.932692 -0.0400354 0
1.14121 -0.0496869 0
1.13663 -0.0360319 0
1.13251 -0.0232536 0
1.09376 -0.047998 0
1.08875 -0.0348302 0
1.08436 -0.0224996 0
1.04328 -0.0456652 0
1.03791 -0.0331119 0
1.03326 -0.0213608 0
1.13251 -0.0232536 0
1.12858 -0.0112641 0
1.125 0 0
1.08436 -0.0224996 0
1.08027 -0.0109266 0
1.07666 0 0
1.03326 -0.0213608 0
1.02903 -0.0103443 0
1.02539 0 0
1.04328 -0.0456652 0
1.03791 -0.0331119 0
1.03326 -0.0213608 0
0.989515 -0.04303 0
0.983901 -0.0312048 0
0.979072 -0.0201353 0
0.932692 -0.0400354 0
0.926896 -0.0290111 0
0.921934 -0.0186965 0
1.03326 -0.0213608 0
1.02903 -0.0103443 0
1.02539 0 0
0.979072 -0.0201353 0
0.974798 -0.0097622 0
0.971191 0 0
0.921934 -0.0186965 0
0.917636 -0.00904605 0
0.914062 0 0
0.963836 -0.0918913 0
0.954575 -0.077709 0
0.946523 -0.0643585 0
0.904938 -0.0844182 0
0.895316 -0.0714133 0
0.886916 -0.059143 0
0.842614 -0.0766372 0
0.832737 -0.0648293 0
0.824089 -0.0536683 0
0.946523 -0.0643585 0
0.939107 -0.0518087 0
0.932692 -0.0400354 0
0.886916 -0.059143 0
0.879266 -0.0475954 0
0.87265 -0.0367564 0
0.824089 -0.0536683 0
0.816289 -0.0431615 0
0.809548 -0.0332998 0
0.842614 -0.0766372 0
0.832737 -0.0648293 0
0.824089 -0.0536683 0
0.776679 -0.0683137 0
0.766657 -0.057768 0
0.757875 -0.0477837 0
0.707338 -0.0599305 0
0.697265 -0.0506509 0
0.68844 -0.0418544 0
0.824089 -0.0536683 0
0.816289 -0.0431615 0
0.809548 -0.0332998 0
0.757875 -0.0477837 0
0.750019 -0.0383796 0
0.743242 -0.0295574 0
0.68844 -0.0418544 0
0.680605 -0.0335733 0
0.673868 -0.0258134 0
0.932692 -0.0400354 0
0.926896 -0.0290111 0
0.921934 -0.0186965 0
0.87265 -0.0367564 0
0.86675 -0.0266098 0
0.861729 -0.0171262 0
0.809548 -0.0332998 0
0.803606 -0.0240803 0
0.798574 -0.0154785 0
0.921934 -0.0186965 0
0.917636 -0.00904605 0
0.914062 0 0
0.861729 -0.0171262 0
0.857475 -0.00827246 0
0.854004 0 0
0.798574 -0.0154785 0
0.794386 -0.00747074 0
0.791016 0 0
0.809548 -0.0332998 0
0.803606 -0.0240803 0
0.798574 -0.0154785 0
0.743242 -0.0295574 0
0.737331 -0.0213225 0
0.732359 -0.0136601 0
0.673868 -0.0258134 0
0.668049 -0.0185902 0
0.663188 -0.0118922 0
0.798574 -0.0154785 0
0.794386 -0.00747074 0
0.791016 0 0
0.732359 -0.0136601 0
0.7283 -0.00655732 0
0.725098 0 0
0.663188 -0.0118922 0
0.659283 -0.00571414 0
0.65625 0 0
0.835648 -0.145744 0
0.814315 -0.134576 0
0.794629 -0.123347 0
0.763023 -0.123763 0
0.74177 -0.11442 0
0.722106 -0.104986 0
0.686314 -0.102241 0
0.665235 -0.0946231 0
0.645671 -0.0869029 0
0.794629 -0.123347 0
0.776431 -0.112162 0
0.759901 -0.10113 0
0.722106 -0.104986 0
0.703872 -0.0955519 0
0.687266 -0.0862145 0
0.645671 -0.0869029 0
0.627493 -0.0791533 0
0.610897 -0.0714613 0
0.686314 -0.102241 0
0.665235 -0.0946231 0
0.645671 -0.0869029 0
0.605262 -0.0803287 0
0.584425 -0.0743537 0
0.565063 -0.0682918 0
0.517904 -0.0590566 0
0.497665 -0.0546545 0
0.478839 -0.0501894 0
0.645671 -0.0869029 0
0.627493 -0.0791533 0
0.610897 -0.0714613 0
0.565063 -0.0682918 0
0.547035 -0.0621956 0
0.530556 -0.0561394 0
0.478839 -0.0501894 0
0.461296 -0.0456934 0
0.445255 -0.0412309 0
0.759901 -0.10113 0
0.74465 -0.0903193 0
0.73097 -0.079814 0
0.687266 -0.0862145 0
0.671949 -0.0770328 0
0.658186 -0.0680819 0
0.610897 -0.0714613 0
0.595597 -0.0638745 0
0.581836 -0.0564591 0
0.73097 -0.079814 0
0.718443 -0.0696654 0
0.707338 -0.0599305 0
0.658186 -0.0680819 0
0.645621 -0.0594102 0
0.634484 -0.051072 0
0.581836 -0.0564591 0
0.569312 -0.0492582 0
0.558223 -0.0423204 0
0.610897 -0.0714613 0
0.595597 -0.0638745 0
0.581836 -0.0564591 0
0.530556 -0.0561394 0
0.515373 -0.0501582 0
0.501716 -0.0443062 0
0.445255 -0.0412309 0
0.43049 -0.0368218 0
0.41722 -0.0325111 0
0.581836 -0.0564591 0
0.569312 -0.0492582 0
0.558223 -0.0423204 0
0.501716 -0.0443062 0
0.489328 -0.0386167 0
0.478385 -0.0331294 0
0.41722 -0.0325111 0
0.405221 -0.0283195 0
0.394653 -0.0242787 0
0.517904 -0.0590566 0
0.497665 -0.0546545 0
0.478839 -0.0501894 0
0.420741 -0.0382441 0
0.401785 -0.035312 0
0.3842 -0.0323519 0
0.306489 -0.0196031 0
0.290542 -0.0180728 0
0.275817 -0.0165401 0
0.478839 -0.0501894 0
0.461296 -0.0456934 0
0.445255 -0.0412309 0
0.3842 -0.0323519 0
0.367822 -0.0293787 0
0.352888 -0.0264422 0
0.275817 -0.0165401 0
0.262148 -0.014995 0
0.24975 -0.0134799 0
0.306489 -0.0196031 0
0.290542 -0.0180728 0
0.275817 -0.0165401 0
0.166559 -0.00563902 0
0.156637 -0.00516203 0
0.147611 -0.0046999 0
0 0 0
0 0 0
0 0 0
0.275817 -0.0165401 0
0.262148 -0.014995 0
0.24975 -0.0134799 0
0.147611 -0.0046999 0
0.139237 -0.00422516 0
0.131755 -0.00377369 0
0 0 0
0 0 0
0 0 0
0.445255 -0.0412309 0
0.43049 -0.0368218 0
0.41722 -0.0325111 0
0.352888 -0.0264422 0
0.339171 -0.02355 0
0.326883 -0.020735 0
0.24975 -0.0134799 0
0.238411 -0.0119888 0
0.22831 -0.0105473 0
0.41722 -0.0325111 0
0.405221 -0.0283195 0
0.394653 -0.0242787 0
0.326883 -0.020735 0
0.315812 -0.0180073 0
0.306107 -0.0153884 0
0.22831 -0.0105473 0
0.219254 -0.0091533 0
0.211362 -0.00782347 0
0.24975 -0.0134799 0
0.238411 -0.0119888 0
0.22831 -0.0105473 0
0.131755 -0.00377369 0
0.124924 -0.00332665 0
0.118929 -0.00290579 0
0 0 0
0 0 0
0 0 0
0.22831 -0.0105473 0
0.219254 -0.0091533 0
0.211362 -0.00782347 0
0.118929 -0.00290579 0
0.113566 -0.0024978 0
0.108956 -0.00211743 0
0 0 0
0 0 0
0 0 0
0.707338 -0.0599305 0
0.697265 -0.0506509 0
0.68844 -0.0418544 0
0.634484 -0.051072 0
0.624438 -0.0431108 0
0.615657 -0.0355557 0
0.558223 -0.0423204 0
0.548282 -0.0356879 0
0.539626 -0.0293881 0
0.68844 -0.0418544 0
0.680605 -0.0335733 0
0.673868 -0.0258134 0
0.615657 -0.0355557 0
0.607921 -0.0284444 0
0.601303 -0.0217913 0
0.539626 -0.0293881 0
0.532065 -0.023463 0
0.525643 -0.0179296 0
0.558223 -0.0423204 0
0.548282 -0.0356879 0
0.539626 -0.0293881 0
0.478385 -0.0331294 0
0.468639 -0.0278788 0
0.460203 -0.0228873 0
0.394653 -0.0242787 0
0.385304 -0.0204115 0
0.377266 -0.0167333 0
0.539626 -0.0293881 0
0.532065 -0.023463 0
0.525643 -0.0179296 0
0.460203 -0.0228873 0
0.452908 -0.0181929 0
0.446773 -0.0138153 0
0.377266 -0.0167333 0
0.370389 -0.0132728 0
0.364677 -0.0100494 0
0.673868 -0.0258134 0
0.668049 -0.0185902 0
0.663188 -0.0118922 0
0.601303 -0.0217913 0
0.595646 -0.0156179 0
0.590964 -0.00992292 0
0.525643 -0.0179296 0
0.520214 -0.0128172 0
0.515768 -0.00812712 0
0.663188 -0.0118922 0
0.659283 -0.00571414 0
0.65625 0 0
0.590964 -0.00992292 0
0.587272 -0.00470957 0
0.584473 0 0
0.515768 -0.00812712 0
0.512324 -0.00387324 0
0.509766 0 0
0.525643 -0.0179296 0
0.520214 -0.0128172 0
0.515768 -0.00812712 0
0.446773 -0.0138153 0
0.441653 -0.00978548 0
0.437521 -0.00611926 0
0.364677 -0.0100494 0
0.359984 -0.00709246 0
0.356261 -0.0044147 0
0.515768 -0.00812712 0
0.512324 -0.00387324 0
0.509766 0 0
0.437521 -0.00611926 0
0.434385 -0.00283772 0
0.432129 0 0
0.356261 -0.0044147 0
0.353495 -0.00206252 0
0.351562 0 0
0.394653 -0.0242787 0
0.385304 -0.0204115 0
0.377266 -0.0167333 0
0.306107 -0.0153884 0
0.297577 -0.0128901 0
0.290302 -0.0105175 0
0.211362 -0.00782347 0
0.204473 -0.00655798 0
0.198644 -0.00535904 0
0.377266 -0.0167333 0
0.370389 -0.0132728 0
0.364677 -0.0100494 0
0.290302 -0.0105175 0
0.284143 -0.00828641 0
0.279102 -0.00621047 0
0.198644 -0.00535904 0
0.193756 -0.00422976 0
0.189809 -0.00318093 0
0.211362 -0.00782347 0
0.204473 -0.00655798 0
0.198644 -0.00535904 0
0.108956 -0.00211743 0
0.104945 -0.00175711 0
0.101597 -0.00142014 0
0 0 0
0 0 0
0 0 0
0.198644 -0.00535904 0
0.193756 -0.00422976 0
0.189809 -0.00318093 0
0.101597 -0.00142014 0
0.0988036 -0.00110097 0
0.0965763 -0.000809598 0
0 0 0
0 0 0
0 0 0
0.364677 -0.0100494 0
0.359984 -0.00709246 0
0.356261 -0.0044147 0
0.279102 -0.00621047 0
0.275038 -0.00430714 0
0.271894 -0.00259066 0
0.189809 -0.00318093 0
0.186696 -0.00221743 0
0.184362 -0.00133608 0
0.356261 -0.0044147 0
0.353495 -0.00206252 0
0.351562 0 0
0.271894 -0.00259066 0
0.26961 -0.00110364 0
0.268066 0 0
0.184362 -0.00133608 0
0.18272 -0.000587236 0
0.181641 0 0
0.189809 -0.00318093 0
0.186696 -0.00221743 0
0.184362 -0.00133608 0
0.0965763 -0.000809598 0
0.0948508 -0.000545563 0
0.0936194 -0.000299004 0
0 0 0
0 0 0
0 0 0
0.184362 -0.00133608 0
0.18272 -0.000587236 0
0.181641 0 0
0.0936194 -0.000299004 0
0.0927845 -6.80612e-05 0
0.0922852 0 0
0 0 0
0 0 0
0 0 0
1.76291 -0.451166 0
1.72042 -0.475383 0
1.67545 -0.493719 0
1.69894 -0.398287 0
1.66002 -0.421038 0
1.61898 -0.438649 0
1.62904 -0.351217 0
1.59453 -0.372592 0
1.55799 -0.389594 0
1.67545 -0.493719 0
1.63045 -0.505661 0
1.58427 -0.511633 0
1.61898 -0.438649 0
1.57784 -0.451037 0
1.53564 -0.458177 0
1.55799 -0.389594 0
1.52124 -0.402183 0
1.48346 -0.4102 0
1.62904 -0.351217 0
1.59453 -0.372592 0
1.55799 -0.389594 0
1.56233 -0.311637 0
1.5312 -0.330423 0
1.49827 -0.345608 0
1.49268 -0.27285 0
1.46356 -0.290009 0
1.43279 -0.304065 0
1.55799 -0.389594 0
1.52124 -0.402183 0
1.48346 -0.4102 0
1.49827 -0.345608 0
1.46487 -0.357062 0
1.43044 -0.364705 0
1.43279 -0.304065 0
1.40164 -0.314946 0
1.36954 -0.322556 0
1.58427 -0.511633 0
1.54102 -0.511862 0
1.49802 -0.506485 0
1.53564 -0.458177 0
1.49586 -0.460302 0
1.45622 -0.457869 0
1.48346 -0.4102 0
1.44747 -0.41394 0
1.41153 -0.413514 0
1.49802 -0.506485 0
1.45934 -0.49706 0
1.42194 -0.483478 0
1.45622 -0.457869 0
1.42011 -0.451467 0
1.38511 -0.441413 0
1.41153 -0.413514 0
1.37824 -0.409439 0
1.34585 -0.401939 0
1.48346 -0.4102 0
1.44747 -0.41394 0
1.41153 -0.413514 0
1.43044 -0.364705 0
1.39718 -0.368692 0
1.36376 -0.369147 0
1.36954 -0.322556 0
1.33835 -0.327033 0
1.30702 -0.328462 0
1.41153 -0.413514 0
1.37824 -0.409439 0
1.34585 -0.401939 0
1.36376 -0.369147 0
1.33234 -0.366493 0
1.30155 -0.360857 0
1.30702 -0.328462 0
1.27731 -0.327142 0
1.24816 -0.323174 0
1.49268 -0.27285 0
1.46356 -0.290009 0
1.43279 -0.304065 0
1.41958 -0.238401 0
1.39249 -0.254159 0
1.36387 -0.267186 0
1.34641 -0.205647 0
1.32106 -0.220074 0
1.29421 -0.232146 0
1.43279 -0.304065 0
1.40164 -0.314946 0
1.36954 -0.322556 0
1.36387 -0.267186 0
1.33488 -0.277417 0
1.30498 -0.284798 0
1.29421 -0.232146 0
1.26695 -0.241787 0
1.23879 -0.248949 0
1.34641 -0.205647 0
1.32106 -0.220074 0
1.29421 -0.232146 0
1.2723 -0.175421 0
1.2483 -0.188334 0
1.22285 -0.199217 0
1.19591 -0.146515 0
1.17297 -0.158087 0
1.14859 -0.167933 0
1.29421 -0.232146 0
1.26695 -0.241787 0
1.23879 -0.248949 0
1.22285 -0.199217 0
1.19694 -0.208012 0
1.17011 -0.214681 0
1.14859 -0.167933 0
1.12373 -0.176001 0
1.09796 -0.182252 0
1.36954 -0.322556 0
1.33835 -0.327033 0
1.30702 -0.328462 0
1.30498 -0.284798 0
1.27581 -0.289431 0
1.24643 -0.29138 0
1.23879 -0.248949 0
1.21113 -0.253704 0
1.18322 -0.256102 0
1.30702 -0.328462 0
1.27731 -0.327142 0
1.24816 -0.323174 0
1.24643 -0.29138 0
1.21837 -0.290887 0
1.19075 -0.288027 0
1.18322 -0.256102 0
1.15634 -0.256333 0
1.12981 -0.254458 0
1.23879 -0.248949 0
1.21113 -0.253704 0
1.18322 -0.256102 0
1.17011 -0.214681 0
1.14361 -0.219291 0
1.11681 -0.221865 0
1.09796 -0.182252 0
1.07241 -0.186735 0
1.04652 -0.189468 0
1.18322 -0.256102 0
1.15634 -0.256333 0
1.12981 -0.254458 0
1.11681 -0.221865 0
1.09082 -0.222571 0
1.0651 -0.221437 0
1.04652 -0.189468 0
1.02129 -0.190579 0
0.996259 -0.190089 0
1.42194 -0.483478 0
1.3895 -0.467325 0
1.35926 -0.448011 0
1.38511 -0.441413 0
1.35441 -0.428435 0
1.32562 -0.412979 0
1.34585 -0.401939 0
1.31683 -0.39173 0
1.2894 -0.379039 0
1.35926 -0.448011 0
1.33323 -0.427513 0
1.30973 -0.405428 0
1.32562 -0.412979 0
1.30048 -0.395832 0
1.27764 -0.377044 0
1.2894 -0.379039 0
1.26494 -0.364488 0
1.24239 -0.348261 0
1.34585 -0.401939 0
1.31683 -0.39173 0
1.2894 -0.379039 0
1.30155 -0.360857 0
1.2735 -0.352789 0
1.24674 -0.342442 0
1.24816 -0.323174 0
1.2213 -0.316976 0
1.19565 -0.308714 0
1.2894 -0.379039 0
1.26494 -0.364488 0
1.24239 -0.348261 0
1.24674 -0.342442 0
1.22254 -0.330398 0
1.20007 -0.316778 0
1.19565 -0.308714 0
1.17221 -0.298828 0
1.15035 -0.287423 0
1.30973 -0.405428 0
1.29006 -0.382865 0
1.27325 -0.359428 0
1.27764 -0.377044 0
1.25824 -0.357262 0
1.24133 -0.336705 0
1.24239 -0.348261 0
1.22274 -0.330961 0
1.20526 -0.312752 0
1.27325 -0.359428 0
1.25915 -0.33634 0
1.24741 -0.31362 0
1.24133 -0.336705 0
1.22675 -0.315843 0
1.21453 -0.294644 0
1.20526 -0.312752 0
1.18989 -0.294116 0
1.17667 -0.275327 0
1.24239 -0.348261 0
1.22274 -0.330961 0
1.20526 -0.312752 0
1.20007 -0.316778 0
1.18027 -0.302093 0
1.16249 -0.286473 0
1.15035 -0.287423 0
1.13084 -0.274907 0
1.11317 -0.261414 0
1.20526 -0.312752 0
1.18989 -0.294116 0
1.17667 -0.275327 0
1.16249 -0.286473 0
1.14672 -0.270316 0
1.13298 -0.253703 0
1.11317 -0.261414 0
1.09726 -0.247245 0
1.08318 -0.232535 0
1.24816 -0.323174 0
1.2213 -0.316976 0
1.19565 -0.308714 0
1.19075 -0.288027 0
1.16503 -0.283157 0
1.14032 -0.276407 0
1.12981 -0.254458 0
1.10483 -0.250767 0
1.08073 -0.245371 0
1.19565 -0.308714 0
1.17221 -0.298828 0
1.15035 -0.287423 0
1.14032 -0.276407 0
1.11748 -0.268148 0
1.09601 -0.258456 0
1.08073 -0.245371 0
1.05824 -0.238577 0
1.03699 -0.230463 0
1.12981 -0.254458 0
1.10483 -0.250767 0
1.08073 -0.245371 0
1.0651 -0.221437 0
1.04068 -0.218713 0
1.01704 -0.214468 0
0.996259 -0.190089 0
0.972321 -0.188193 0
0.94906 -0.184956 0
1.08073 -0.245371 0
1.05824 -0.238577 0
1.03699 -0.230463 0
1.01704 -0.214468 0
0.994806 -0.208965 0
0.973709 -0.202261 0
0.94906 -0.184956 0
0.92702 -0.180584 0
0.906011 -0.175129 0
1.15035 -0.287423 0
1.13084 -0.274907 0
1.11317 -0.261414 0
1.09601 -0.258456 0
1.07658 -0.247701 0
1.05878 -0.236021 0
1.03699 -0.230463 0
1.01756 -0.221346 0
0.99965 -0.211343 0
1.11317 -0.261414 0
1.09726 -0.247245 0
1.08318 -0.232535 0
1.05878 -0.236021 0
1.04261 -0.223703 0
1.02813 -0.210806 0
0.99965 -0.211343 0
0.983276 -0.20068 0
0.968511 -0.189428 0
1.03699 -0.230463 0
1.01756 -0.221346 0
0.99965 -0.211343 0
0.973709 -0.202261 0
0.95422 -0.194619 0
0.936136 -0.186129 0
0.906011 -0.175129 0
0.886424 -0.168806 0
0.868143 -0.161705 0
0.99965 -0.211343 0
0.983276 -0.20068 0
0.968511 -0.189428 0
0.936136 -0.186129 0
0.919459 -0.176997 0
0.90428 -0.167298 0
0.868143 -0.161705 0
0.851175 -0.153996 0
0.835648 -0.145744 0
1.19591 -0.146515 0
1.17297 -0.158087 0
1.14859 -0.167933 0
1.11796 -0.120083 0
1.09595 -0.130255 0
1.07251 -0.138963 0
1.03729 -0.0944905 0
1.01616 -0.103319 0
0.993536 -0.110934 0
1.14859 -0.167933 0
1.12373 -0.176001 0
1.09796 -0.182252 0
1.07251 -0.138963 0
1.04855 -0.146156 0
1.02367 -0.151803 0
0.993536 -0.110934 0
0.970344 -0.117289 0
0.94618 -0.122354 0
1.03729 -0.0944905 0
1.01616 -0.103319 0
0.993536 -0.110934 0
0.950887 -0.0707947 0
0.930887 -0.0781554 0
0.909323 -0.0845446 0
0.851899 -0.0486643 0
0.833652 -0.0544821 0
0.813662 -0.0595756 0
0.993536 -0.110934 0
0.970344 -0.117289 0
0.94618 -0.122354 0
0.909323 -0.0845446 0
0.887066 -0.089918 0
0.863752 -0.0942522 0
0.813662 -0.0595756 0
0.792837 -0.0639068 0
0.770819 -0.0674473 0
1.09796 -0.182252 0
1.07241 -0.186735 0
1.04652 -0.189468 0
1.02367 -0.151803 0
0.998872 -0.155942 0
0.973695 -0.158587 0
0.94618 -0.122354 0
0.921992 -0.126161 0
0.897363 -0.128715 0
1.04652 -0.189468 0
1.02129 -0.190579 0
0.996259 -0.190089 0
0.973695 -0.158587 0
0.949024 -0.159844 0
0.924475 -0.159729 0
0.897363 -0.128715 0
0.87311 -0.130103 0
0.848913 -0.130335 0
0.94618 -0.122354 0
0.921992 -0.126161 0
0.897363 -0.128715 0
0.863752 -0.0942522 0
0.840275 -0.0975695 0
0.816271 -0.0998696 0
0.770819 -0.0674473 0
0.748476 -0.0702138 0
0.725488 -0.0721978 0
0.897363 -0.128715 0
0.87311 -0.130103 0
0.848913 -0.130335 0
0.816271 -0.0998696 0
0.792503 -0.101223 0
0.768705 -0.101632 0
0.725488 -0.0721978 0
0.702583 -0.0734544 0
0.679543 -0.0739792 0
0.851899 -0.0486643 0
0.833652 -0.0544821 0
0.813662 -0.0595756 0
0.728365 -0.0296234 0
0.713013 -0.033714 0
0.695766 -0.037322 0
0.559967 -0.0135127 0
0.548809 -0.0158143 0
0.535758 -0.0178632 0
0.813662 -0.0595756 0
0.792837 -0.0639068 0
0.770819 -0.0674473 0
0.695766 -0.037322 0
0.677469 -0.040418 0
0.657817 -0.0429715 0
0.535758 -0.0178632 0
0.521555 -0.0196505 0
0.50596 -0.0211419 0
0.559967 -0.0135127 0
0.548809 -0.0158143 0
0.535758 -0.0178632 0
0.323222 -0.00387936 0
0.317223 -0.00459475 0
0.309794 -0.00522217 0
0 0 0
0 0 0
0 0 0
0.535758 -0.0178632 0
0.521555 -0.0196505 0
0.50596 -0.0211419 0
0.309794 -0.00522217 0
0.301537 -0.00578071 0
0.292191 -0.00623082 0
0 0 0
0 0 0
0 0 0
0.770819 -0.0674473 0
0.748476 -0.0702138 0
0.725488 -0.0721978 0
0.657817 -0.0429715 0
0.637623 -0.044995 0
0.616633 -0.0464731 0
0.50596 -0.0211419 0
0.489665 -0.0223554 0
0.472499 -0.0232642 0
0.725488 -0.0721978 0