# vtk DataFile Version 3.0
#This file was generated by the deal.II library on 2025/1/3 at 14:03:22
ASCII
DATASET UNSTRUCTURED_GRID

POINTS 34560 double
1.1 1.1 0
1.03125 1.09531 0
0.9625 1.09063 0
1.09375 1.03125 0
1.02539 1.02686 0
0.957031 1.02246 0
1.0875 0.9625 0
1.01953 0.958398 0
0.951563 0.954297 0
0.9625 1.09063 0
0.89375 1.08594 0
0.825 1.08125 0
0.957031 1.02246 0
0.888672 1.01807 0
0.820312 1.01367 0
0.951563 0.954297 0
0.883594 0.950195 0
0.815625 0.946094 0
1.0875 0.9625 0
1.01953 0.958398 0
0.951563 0.954297 0
1.08125 0.89375 0
1.01367 0.889941 0
0.946094 0.886133 0
1.075 0.825 0
1.00781 0.821484 0
0.940625 0.817969 0
0.951563 0.954297 0
0.883594 0.950195 0
0.815625 0.946094 0
0.946094 0.886133 0
0.878516 0.882324 0
0.810938 0.878516 0
0.940625 0.817969 0
0.873438 0.814453 0
0.80625 0.810937 0
0.825 1.08125 0
0.75625 1.07656 0
0.6875 1.07187 0
0.820312 1.01367 0
0.751953 1.00928 0
0.683594 1.00488 0
0.815625 0.946094 0
0.747656 0.941992 0
0.679688 0.937891 0
0.6875 1.07187 0
0.61875 1.06719 0
0.55 1.0625 0
0.683594 1.00488 0
0.615234 1.00049 0
0.546875 0.996094 0
0.679688 0.937891 0
0.611719 0.933789 0
0.54375 0.929688 0
0.815625 0.946094 0
0.747656 0.941992 0
0.679688 0.937891 0
0.810938 0.878516 0
0.743359 0.874707 0
0.675781 0.870898 0
0.80625 0.810937 0
0.739063 0.807422 0
0.671875 0.803906 0
0.679688 0.937891 0
0.611719 0.933789 0
0.54375 0.929688 0
0.675781 0.870898 0
0.608203 0.86709 0
0.540625 0.863281 0
0.671875 0.803906 0
0.604688 0.800391 0
0.5375 0.796875 0
1.075 0.825 0
1.00781 0.821484 0
0.940625 0.817969 0
1.06875 0.75625 0
1.00195 0.753027 0
0.935156 0.749805 0
1.0625 0.6875 0
0.996094 0.68457 0
0.929688 0.681641 0
0.940625 0.817969 0
0.873438 0.814453 0
0.80625 0.810937 0
0.935156 0.749805 0
0.868359 0.746582 0
0.801563 0.743359 0
0.929688 0.681641 0
0.863281 0.678711 0
0.796875 0.675781 0
1.0625 0.6875 0
0.996094 0.68457 0
0.929688 0.681641 0
1.05625 0.61875 0
0.990234 0.616113 0
0.924219 0.613477 0
1.05 0.55 0
0.984375 0.547656 0
0.91875 0.545313 0
0.929688 0.681641 0
0.863281 0.678711 0
0.796875 0.675781 0
0.924219 0.613477 0
0.858203 0.61084 0
0.792188 0.608203 0
0.91875 0.545313 0
0.853125 0.542969 0
0.7875 0.540625 0
0.80625 0.810937 0
0.739063 0.807422 0
0.671875 0.803906 0
0.801563 0.743359 0
0.734766 0.740137 0
0.667969 0.736914 0
0.796875 0.675781 0
0.730469 0.672852 0
0.664062 0.669922 0
0.671875 0.803906 0
0.604688 0.800391 0
0.5375 0.796875 0
0.667969 0.736914 0
0.601172 0.733691 0
0.534375 0.730469 0
0.664062 0.669922 0
0.597656 0.666992 0
0.53125 0.664062 0
0.796875 0.675781 0
0.730469 0.672852 0
0.664062 0.669922 0
0.792188 0.608203 0
0.726172 0.605566 0
0.660156 0.60293 0
0.7875 0.540625 0
0.721875 0.538281 0
0.65625 0.535937 0
0.664062 0.669922 0
0.597656 0.666992 0
0.53125 0.664062 0
0.660156 0.60293 0
0.594141 0.600293 0
0.528125 0.597656 0
0.65625 0.535937 0
0.590625 0.533594 0
0.525 0.53125 0
0.55 1.0625 0
0.48125 1.05781 0
0.4125 1.05313 0
0.546875 0.996094 0
0.478516 0.991699 0
0.410156 0.987305 0
0.54375 0.929688 0
0.475781 0.925586 0
0.407813 0.921484 0
0.4125 1.05313 0
0.34375 1.04844 0
0.275 1.04375 0
0.410156 0.987305 0
0.341797 0.98291 0
0.273438 0.978516 0
0.407813 0.921484 0
0.339844 0.917383 0
0.271875 0.913281 0
0.54375 0.929688 0
0.475781 0.925586 0
0.407813 0.921484 0
0.540625 0.863281 0
0.473047 0.859473 0
0.405469 0.855664 0
0.5375 0.796875 0
0.470313 0.793359 0
0.403125 0.789844 0
0.407813 0.921484 0
0.339844 0.917383 0
0.271875 0.913281 0
0.405469 0.855664 0
0.337891 0.851855 0
0.270313 0.848047 0
0.403125 0.789844 0
0.335938 0.786328 0
0.26875 0.782813 0
0.275 1.04375 0
0.20625 1.03906 0
0.1375 1.03437 0
0.273438 0.978516 0
0.205078 0.974121 0
0.136719 0.969727 0
0.271875 0.913281 0
0.203906 0.90918 0
0.135938 0.905078 0
0.1375 1.03437 0
0.06875 1.02969 0
0 1.025 0
0.136719 0.969727 0
0.0683594 0.965332 0
0 0.960937 0
0.135938 0.905078 0
0.0679688 0.900977 0
0 0.896875 0
0.271875 0.913281 0
0.203906 0.90918 0
0.135938 0.905078 0
0.270313 0.848047 0
0.202734 0.844238 0
0.135156 0.84043 0
0.26875 0.782813 0
0.201563 0.779297 0
0.134375 0.775781 0
0.135938 0.905078 0
0.0679688 0.900977 0
0 0.896875 0
0.135156 0.84043 0
0.0675781 0.836621 0
0 0.832812 0
0.134375 0.775781 0
0.0671875 0.772266 0
0 0.76875 0
0.5375 0.796875 0
0.470313 0.793359 0
0.403125 0.789844 0
0.534375 0.730469 0
0.467578 0.727246 0
0.400781 0.724023 0
0.53125 0.664062 0
0.464844 0.661133 0
0.398438 0.658203 0
0.403125 0.789844 0
0.335938 0.786328 0
0.26875 0.782813 0
0.400781 0.724023 0
0.333984 0.720801 0
0.267188 0.717578 0
0.398438 0.658203 0
0.332031 0.655273 0
0.265625 0.652344 0
0.53125 0.664062 0
0.464844 0.661133 0
0.398438 0.658203 0
0.528125 0.597656 0
0.462109 0.59502 0
0.396094 0.592383 0
0.525 0.53125 0
0.459375 0.528906 0
0.39375 0.526563 0
0.398438 0.658203 0
0.332031 0.655273 0
0.265625 0.652344 0
0.396094 0.592383 0
0.330078 0.589746 0
0.264062 0.587109 0
0.39375 0.526563 0
0.328125 0.524219 0
0.2625 0.521875 0
0.26875 0.782813 0
0.201563 0.779297 0
0.134375 0.775781 0
0.267188 0.717578 0
0.200391 0.714355 0
0.133594 0.711133 0
0.265625 0.652344 0
0.199219 0.649414 0
0.132812 0.646484 0
0.134375 0.775781 0
0.0671875 0.772266 0
0 0.76875 0
0.133594 0.711133 0
0.0667969 0.70791 0
0 0.704687 0
0.132812 0.646484 0
0.0664062 0.643555 0
0 0.640625 0
0.265625 0.652344 0
0.199219 0.649414 0
0.132812 0.646484 0
0.264062 0.587109 0
0.198047 0.584473 0
0.132031 0.581836 0
0.2625 0.521875 0
0.196875 0.519531 0
0.13125 0.517187 0
0.132812 0.646484 0
0.0664062 0.643555 0
0 0.640625 0
0.132031 0.581836 0
0.0660156 0.579199 0
0 0.576562 0
0.13125 0.517187 0
0.065625 0.514844 0
0 0.5125 0
1.05 0.55 0
0.984375 0.547656 0
0.91875 0.545313 0
1.04375 0.48125 0
0.978516 0.479199 0
0.913281 0.477148 0
1.0375 0.4125 0
0.972656 0.410742 0
0.907813 0.408984 0
0.91875 0.545313 0
0.853125 0.542969 0
0.7875 0.540625 0
0.913281 0.477148 0
0.848047 0.475098 0
0.782813 0.473047 0
0.907813 0.408984 0
0.842969 0.407227 0
0.778125 0.405469 0
1.0375 0.4125 0
0.972656 0.410742 0
0.907813 0.408984 0
1.03125 0.34375 0
0.966797 0.342285 0
0.902344 0.34082 0
1.025 0.275 0
0.960937 0.273828 0
0.896875 0.272656 0
0.907813 0.408984 0
0.842969 0.407227 0
0.778125 0.405469 0
0.902344 0.34082 0
0.837891 0.339355 0
0.773438 0.337891 0
0.896875 0.272656 0
0.832812 0.271484 0
0.76875 0.270313 0
0.7875 0.540625 0
0.721875 0.538281 0
0.65625 0.535937 0
0.782813 0.473047 0
0.717578 0.470996 0
0.652344 0.468945 0
0.778125 0.405469 0
0.713281 0.403711 0
0.648438 0.401953 0
0.65625 0.535937 0
0.590625 0.533594 0
0.525 0.53125 0
0.652344 0.468945 0
0.587109 0.466895 0
0.521875 0.464844 0
0.648438 0.401953 0
0.583594 0.400195 0
0.51875 0.398438 0
0.778125 0.405469 0
0.713281 0.403711 0
0.648438 0.401953 0
0.773438 0.337891 0
0.708984 0.336426 0
0.644531 0.334961 0
0.76875 0.270313 0
0.704687 0.269141 0
0.640625 0.267969 0
0.648438 0.401953 0
0.583594 0.400195 0
0.51875 0.398438 0
0.644531 0.334961 0
0.580078 0.333496 0
0.515625 0.332031 0
0.640625 0.267969 0
0.576562 0.266797 0
0.5125 0.265625 0
1.025 0.275 0
0.960937 0.273828 0
0.896875 0.272656 0
1.01875 0.20625 0
0.955078 0.205371 0
0.891406 0.204492 0
1.0125 0.1375 0
0.949219 0.136914 0
0.885937 0.136328 0
0.896875 0.272656 0
0.832812 0.271484 0
0.76875 0.270313 0
0.891406 0.204492 0
0.827734 0.203613 0
0.764062 0.202734 0
0.885937 0.136328 0
0.822656 0.135742 0
0.759375 0.135156 0
1.0125 0.1375 0
0.949219 0.136914 0
0.885937 0.136328 0
1.00625 0.06875 0
0.943359 0.068457 0
0.880469 0.0681641 0
1 0 0
0.9375 0 0
0.875 0 0
0.885937 0.136328 0
0.822656 0.135742 0
0.759375 0.135156 0
0.880469 0.0681641 0
0.817578 0.0678711 0
0.754687 0.0675781 0
0.875 0 0
0.8125 0 0
0.75 0 0
0.76875 0.270313 0
0.704687 0.269141 0
0.640625 0.267969 0
0.764062 0.202734 0
0.700391 0.201855 0
0.636719 0.200977 0
0.759375 0.135156 0
0.696094 0.13457 0
0.632812 0.133984 0
0.640625 0.267969 0
0.576562 0.266797 0
0.5125 0.265625 0
0.636719 0.200977 0
0.573047 0.200098 0
0.509375 0.199219 0
0.632812 0.133984 0
0.569531 0.133398 0
0.50625 0.132812 0
0.759375 0.135156 0
0.696094 0.13457 0
0.632812 0.133984 0
0.754687 0.0675781 0
0.691797 0.0672852 0
0.628906 0.0669922 0
0.75 0 0
0.6875 0 0
0.625 0 0
0.632812 0.133984 0
0.569531 0.133398 0
0.50625 0.132812 0
0.628906 0.0669922 0
0.566016 0.0666992 0
0.503125 0.0664062 0
0.625 0 0
0.5625 0 0
0.5 0 0
0.525 0.53125 0
0.459375 0.528906 0
0.39375 0.526563 0
0.521875 0.464844 0
0.456641 0.462793 0
0.391406 0.460742 0
0.51875 0.398438 0
0.453906 0.39668 0
0.389063 0.394922 0
0.39375 0.526563 0
0.328125 0.524219 0
0.2625 0.521875 0
0.391406 0.460742 0
0.326172 0.458691 0
0.260938 0.456641 0
0.389063 0.394922 0
0.324219 0.393164 0
0.259375 0.391406 0
0.51875 0.398438 0
0.453906 0.39668 0
0.389063 0.394922 0
0.515625 0.332031 0
0.451172 0.330566 0
0.386719 0.329102 0
0.5125 0.265625 0
0.448437 0.264453 0
0.384375 0.263281 0
0.389063 0.394922 0
0.324219 0.393164 0
0.259375 0.391406 0
0.386719 0.329102 0
0.322266 0.327637 0
0.257812 0.326172 0
0.384375 0.263281 0
0.320312 0.262109 0
0.25625 0.260937 0
0.2625 0.521875 0
0.196875 0.519531 0
0.13125 0.517187 0
0.260938 0.456641 0
0.195703 0.45459 0
0.130469 0.452539 0
0.259375 0.391406 0
0.194531 0.389648 0
0.129688 0.387891 0
0.13125 0.517187 0
0.065625 0.514844 0
0 0.5125 0
0.130469 0.452539 0
0.0652344 0.450488 0
0 0.448437 0
0.129688 0.387891 0
0.0648438 0.386133 0
0 0.384375 0
0.259375 0.391406 0
0.194531 0.389648 0
0.129688 0.387891 0
0.257812 0.326172 0
0.193359 0.324707 0
0.128906 0.323242 0
0.25625 0.260937 0
0.192187 0.259766 0
0.128125 0.258594 0
0.129688 0.387891 0
0.0648438 0.386133 0
0 0.384375 0
0.128906 0.323242 0
0.0644531 0.321777 0
0 0.320312 0
0.128125 0.258594 0
0.0640625 0.257422 0
0 0.25625 0
0.5125 0.265625 0
0.448437 0.264453 0
0.384375 0.263281 0
0.509375 0.199219 0
0.445703 0.19834 0
0.382031 0.197461 0
0.50625 0.132812 0
0.442969 0.132227 0
0.379688 0.131641 0
0.384375 0.263281 0
0.320312 0.262109 0
0.25625 0.260937 0
0.382031 0.197461 0
0.318359 0.196582 0
0.254687 0.195703 0
[...]
POINT_DATA 34560
VECTORS v double
1.19061 -0.221294 0
1.18207 -0.194153 0
1.17511 -0.170323 0
1.16 -0.210357 0
1.14921 -0.186179 0
1.14051 -0.164067 0
1.12467 -0.198368 0
1.11233 -0.17632 0
1.10174 -0.155986 0
1.17511 -0.170323 0
1.16927 -0.148407 0
1.16467 -0.129075 0
1.14051 -0.164067 0
1.13258 -0.143827 0
1.12635 -0.12564 0
1.10174 -0.155986 0
1.09222 -0.137308 0
1.08423 -0.120331 0
1.12467 -0.198368 0
1.11233 -0.17632 0
1.10174 -0.155986 0
1.08315 -0.183809 0
1.06934 -0.164126 0
1.05734 -0.145844 0
1.03553 -0.169324 0
1.02084 -0.151753 0
1.00782 -0.135294 0
1.10174 -0.155986 0
1.09222 -0.137308 0
1.08423 -0.120331 0
1.05734 -0.145844 0
1.04647 -0.128913 0
1.03715 -0.113425 0
1.00782 -0.135294 0
0.996009 -0.119957 0
0.985687 -0.105826 0
1.16467 -0.129075 0
1.16037 -0.111633 0
1.15695 -0.0962316 0
1.12635 -0.12564 0
1.12027 -0.10915 0
1.11545 -0.0944493 0
1.08423 -0.120331 0
1.07671 -0.104899 0
1.07041 -0.0910085 0
1.15695 -0.0962316 0
1.15343 -0.0824337 0
1.15046 -0.0701992 0
1.11545 -0.0944493 0
1.11049 -0.0811782 0
1.10639 -0.0693364 0
1.07041 -0.0910085 0
1.06424 -0.0784312 0
1.05898 -0.0671237 0
1.08423 -0.120331 0
1.07671 -0.104899 0
1.07041 -0.0910085 0
1.03715 -0.113425 0
1.02845 -0.0992299 0
1.02101 -0.0863767 0
0.985687 -0.105826 0
0.976101 -0.0928123 0
0.967745 -0.0809587 0
1.07041 -0.0910085 0
1.06424 -0.0784312 0
1.05898 -0.0671237 0
1.02101 -0.0863767 0
1.01387 -0.0746626 0
1.00769 -0.0640718 0
0.967745 -0.0809587 0
0.959846 -0.0701143 0
0.952913 -0.0602648 0
1.03553 -0.169324 0
1.02084 -0.151753 0
1.00782 -0.135294 0
0.982529 -0.153903 0
0.967179 -0.138359 0
0.953432 -0.123708 0
0.924623 -0.138529 0
0.908847 -0.124824 0
0.894566 -0.111833 0
1.00782 -0.135294 0
0.996009 -0.119957 0
0.985687 -0.105826 0
0.953432 -0.123708 0
0.940898 -0.109969 0
0.929797 -0.0972457 0
0.894566 -0.111833 0
0.881509 -0.0996016 0
0.869822 -0.0882195 0
0.924623 -0.138529 0
0.908847 -0.124824 0
0.894566 -0.111833 0
0.861667 -0.122269 0
0.845606 -0.11038 0
0.830994 -0.0990678 0
0.793924 -0.106384 0
0.777783 -0.0961642 0
0.763015 -0.0864018 0
0.894566 -0.111833 0
0.881509 -0.0996016 0
0.869822 -0.0882195 0
0.830994 -0.0990678 0
0.817591 -0.0883739 0
0.805519 -0.0783857 0
0.763015 -0.0864018 0
0.749449 -0.077145 0
0.737163 -0.0684719 0
0.985687 -0.105826 0
0.976101 -0.0928123 0
0.967745 -0.0809587 0
0.929797 -0.0972457 0
0.919524 -0.0854746 0
0.910453 -0.0747043 0
0.869822 -0.0882195 0
0.859035 -0.0776537 0
0.849421 -0.0679495 0
0.967745 -0.0809587 0
0.959846 -0.0701143 0
0.952913 -0.0602648 0
0.910453 -0.0747043 0
0.901964 -0.0648162 0
0.894444 -0.0558048 0
0.849421 -0.0679495 0
0.840488 -0.0590213 0
0.832523 -0.0508641 0
0.869822 -0.0882195 0
0.859035 -0.0776537 0
0.849421 -0.0679495 0
0.805519 -0.0783857 0
0.794392 -0.0690819 0
0.784417 -0.0605122 0
0.737163 -0.0684719 0
0.725857 -0.0603777 0
0.715676 -0.0529063 0
0.849421 -0.0679495 0
0.840488 -0.0590213 0
0.832523 -0.0508641 0
0.784417 -0.0605122 0
0.775198 -0.0526104 0
0.766944 -0.0453798 0
0.715676 -0.0529063 0
0.706311 -0.0460135 0
0.697902 -0.039702 0
1.15046 -0.0701992 0
1.14727 -0.0591742 0
1.14439 -0.0492533 0
1.10639 -0.0693364 0
1.1021 -0.0585922 0
1.09837 -0.0488771 0
1.05898 -0.0671237 0
1.05375 -0.056829 0
1.04918 -0.0474711 0
1.14439 -0.0492533 0
1.14122 -0.0401196 0
1.1382 -0.031657 0
1.09837 -0.0488771 0
1.09443 -0.0398869 0
1.09085 -0.031524 0
1.04918 -0.0474711 0
1.04457 -0.0387825 0
1.04043 -0.0306675 0
1.05898 -0.0671237 0
1.05375 -0.056829 0
1.04918 -0.0474711 0
1.00769 -0.0640718 0
1.00172 -0.0543788 0
0.996463 -0.0455286 0
0.952913 -0.0602648 0
0.946336 -0.0512257 0
0.94052 -0.0429433 0
1.04918 -0.0474711 0
1.04457 -0.0387825 0
1.04043 -0.0306675 0
0.996463 -0.0455286 0
0.991345 -0.0372774 0
0.986767 -0.0295377 0
0.94052 -0.0429433 0
0.934981 -0.0352026 0
0.930046 -0.027921 0
1.1382 -0.031657 0
1.13497 -0.0235657 0
1.13179 -0.0157321 0
1.09085 -0.031524 0
1.08714 -0.0235091 0
1.08367 -0.0157293 0
1.04043 -0.0306675 0
1.03633 -0.022867 0
1.03259 -0.0152834 0
1.13179 -0.0157321 0
1.12839 -0.00789428 0
1.125 0 0
1.08367 -0.0157293 0
1.08009 -0.00793254 0
1.07666 0 0
1.03259 -0.0152834 0
1.02885 -0.0076807 0
1.02539 0 0
1.04043 -0.0306675 0
1.03633 -0.022867 0
1.03259 -0.0152834 0
0.986767 -0.0295377 0
0.982377 -0.0220697 0
0.978432 -0.0147894 0
0.930046 -0.027921 0
0.925422 -0.0208787 0
0.921319 -0.0139951 0
1.03259 -0.0152834 0
1.02885 -0.0076807 0
1.02539 0 0
0.978432 -0.0147894 0
0.974626 -0.00746666 0
0.971191 0 0
0.921319 -0.0139951 0
0.917464 -0.00705585 0
0.914062 0 0
0.952913 -0.0602648 0
0.946336 -0.0512257 0
0.94052 -0.0429433 0
0.894444 -0.0558048 0
0.887405 -0.0475133 0
0.881156 -0.0398969 0
0.832523 -0.0508641 0
0.825139 -0.0433515 0
0.818565 -0.0364413 0
0.94052 -0.0429433 0
0.934981 -0.0352026 0
0.930046 -0.027921 0
0.881156 -0.0398969 0
0.875307 -0.0327629 0
0.870111 -0.0260365 0
0.818565 -0.0364413 0
0.812494 -0.0299646 0
0.807114 -0.0238494 0
0.832523 -0.0508641 0
0.825139 -0.0433515 0
0.818565 -0.0364413 0
0.766944 -0.0453798 0
0.75935 -0.038715 0
0.75258 -0.0325826 0
0.697902 -0.039702 0
0.690214 -0.0338899 0
0.683356 -0.0285468 0
0.818565 -0.0364413 0
0.812494 -0.0299646 0
0.807114 -0.0238494 0
0.75258 -0.0325826 0
0.74639 -0.0268322 0
0.740921 -0.021399 0
0.683356 -0.0285468 0
0.677138 -0.0235446 0
0.671659 -0.0188205 0
0.930046 -0.027921 0
0.925422 -0.0208787 0
0.921319 -0.0139951 0
0.870111 -0.0260365 0
0.865337 -0.0195107 0
0.861148 -0.013111 0
0.807114 -0.0238494 0
0.802247 -0.0179036 0
0.79802 -0.0120549 0
0.921319 -0.0139951 0
0.917464 -0.00705585 0
0.914062 0 0
0.861148 -0.013111 0
0.857311 -0.00663262 0
0.854004 0 0
0.79802 -0.0120549 0
0.794224 -0.00610912 0
0.791016 0 0
0.807114 -0.0238494 0
0.802247 -0.0179036 0
0.79802 -0.0120549 0
0.740921 -0.021399 0
0.736039 -0.0161018 0
0.73184 -0.0108726 0
0.671659 -0.0188205 0
0.666821 -0.0142075 0
0.662699 -0.00963672 0
0.79802 -0.0120549 0
0.794224 -0.00610912 0
0.791016 0 0
0.73184 -0.0108726 0
0.728147 -0.00552437 0
0.725098 0 0
0.662699 -0.00963672 0
0.659135 -0.00492765 0
0.65625 0 0
0.793924 -0.106384 0
0.777783 -0.0961642 0
0.763015 -0.0864018 0
0.721575 -0.0899628 0
0.705431 -0.0813619 0
0.690629 -0.0731324 0
0.64456 -0.0739492 0
0.628556 -0.0668846 0
0.61385 -0.0601147 0
0.763015 -0.0864018 0
0.749449 -0.077145 0
0.737163 -0.0684719 0
0.690629 -0.0731324 0
0.67701 -0.0653146 0
0.664647 -0.0579797 0
0.61385 -0.0601147 0
0.600325 -0.0536782 0
0.588032 -0.0476354 0
0.64456 -0.0739492 0
0.628556 -0.0668846 0
0.61385 -0.0601147 0
0.562552 -0.0575479 0
0.546802 -0.0519985 0
0.532348 -0.0466881 0
0.474201 -0.0418161 0
0.459079 -0.0377373 0
0.445223 -0.0338433 0
0.61385 -0.0601147 0
0.600325 -0.0536782 0
0.588032 -0.0476354 0
0.532348 -0.0466881 0
0.51907 -0.0416442 0
0.507019 -0.0369165 0
0.445223 -0.0338433 0
0.432538 -0.030152 0
0.421054 -0.0267028 0
0.737163 -0.0684719 0
0.725857 -0.0603777 0
0.715676 -0.0529063 0
0.664647 -0.0579797 0
0.65329 -0.051127 0
0.643047 -0.0447971 0
0.588032 -0.0476354 0
0.576771 -0.0419899 0
0.566613 -0.0367761 0
0.715676 -0.0529063 0
0.706311 -0.0460135 0
0.697902 -0.039702 0
0.643047 -0.0447971 0
0.633666 -0.0389565 0
0.625241 -0.0336111 0
0.566613 -0.0367761 0
0.557355 -0.0319708 0
0.549051 -0.0275788 0
0.588032 -0.0476354 0
0.576771 -0.0419899 0
0.566613 -0.0367761 0
0.507019 -0.0369165 0
0.49602 -0.0325065 0
0.48612 -0.0284424 0
0.421054 -0.0267028 0
0.410622 -0.0234939 0
0.401266 -0.020547 0
0.566613 -0.0367761 0
0.557355 -0.0319708 0
0.549051 -0.0275788 0
0.48612 -0.0284424 0
0.47715 -0.0247047 0
0.469133 -0.0212977 0
0.401266 -0.020547 0
0.39284 -0.0178449 0
0.385343 -0.0153913 0
0.474201 -0.0418161 0
0.459079 -0.0377373 0
0.445223 -0.0338433 0
0.37721 -0.0265221 0
0.363388 -0.0238646 0
0.350796 -0.0213438 0
0.268036 -0.0133839 0
0.256844 -0.0120278 0
0.246706 -0.0107514 0
0.445223 -0.0338433 0
0.432538 -0.030152 0
0.421054 -0.0267028 0
0.350796 -0.0213438 0
0.339315 -0.0189673 0
0.328977 -0.0167618 0
0.246706 -0.0107514 0
0.237513 -0.00954895 0
0.22928 -0.0084418 0
0.268036 -0.0133839 0
0.256844 -0.0120278 0
0.246706 -0.0107514 0
0.143303 -0.0037121 0
0.136631 -0.00331598 0
0.13064 -0.00295305 0
0 0 0
0 0 0
0 0 0
0.246706 -0.0107514 0
0.237513 -0.00954895 0
0.22928 -0.0084418 0
0.13064 -0.00295305 0
0.125215 -0.00260962 0
0.120384 -0.00230242 0
0 0 0
0 0 0
0 0 0
0.421054 -0.0267028 0
0.410622 -0.0234939 0
0.401266 -0.020547 0
0.328977 -0.0167618 0
0.319635 -0.0147219 0
0.311298 -0.0128613 0
0.22928 -0.0084418 0
0.221878 -0.00742028 0
0.215301 -0.00649598 0
0.401266 -0.020547 0
0.39284 -0.0178449 0
0.385343 -0.0153913 0
0.311298 -0.0128613 0
0.303834 -0.0111642 0
0.297225 -0.00963313 0
0.215301 -0.00649598 0
0.209436 -0.00565504 0
0.204258 -0.00490235 0
0.22928 -0.0084418 0
0.221878 -0.00742028 0
0.215301 -0.00649598 0
0.120384 -0.00230242 0
0.116044 -0.00201795 0
0.112195 -0.0017679 0
0 0 0
0 0 0
0 0 0
0.215301 -0.00649598 0
0.209436 -0.00565504 0
0.204258 -0.00490235 0
0.112195 -0.0017679 0
0.108758 -0.00153844 0
0.105716 -0.001339 0
0 0 0
0 0 0
0 0 0
0.697902 -0.039702 0
0.690214 -0.0338899 0
0.683356 -0.0285468 0
0.625241 -0.0336111 0
0.617582 -0.0286945 0
0.610757 -0.0241843 0
0.549051 -0.0275788 0
0.541547 -0.0235494 0
0.534874 -0.0198648 0
0.683356 -0.0285468 0
0.677138 -0.0235446 0
0.671659 -0.0188205 0
0.610757 -0.0241843 0
0.604613 -0.01997 0
0.599218 -0.0159966 0
0.534874 -0.0198648 0
0.528907 -0.0164355 0
0.523684 -0.0132112 0
0.549051 -0.0275788 0
0.541547 -0.0235494 0
0.534874 -0.0198648 0
0.469133 -0.0212977 0
0.461932 -0.0181794 0
0.455557 -0.0153392 0
0.385343 -0.0153913 0
0.378654 -0.0131528 0
0.37276 -0.0111219 0
0.534874 -0.0198648 0
0.528907 -0.0164355 0
0.523684 -0.0132112 0
0.455557 -0.0153392 0
0.449893 -0.0127047 0
0.44496 -0.0102358 0
0.37276 -0.0111219 0
0.367559 -0.00924476 0
0.363052 -0.00749117 0
0.671659 -0.0188205 0
0.666821 -0.0142075 0
0.662699 -0.00963672 0
0.599218 -0.0159966 0
0.594499 -0.01211 0
0.590517 -0.00824439 0
0.523684 -0.0132112 0
0.519153 -0.0100562 0
0.515364 -0.00690512 0
0.662699 -0.00963672 0
0.659135 -0.00492765 0
0.65625 0 0
0.590517 -0.00824439 0
0.587136 -0.00422392 0
0.584473 0 0
0.515364 -0.00690512 0
0.512199 -0.00358929 0
0.509766 0 0
0.523684 -0.0132112 0
0.519153 -0.0100562 0
0.515364 -0.00690512 0
0.44496 -0.0102358 0
0.440706 -0.00781705 0
0.437178 -0.00539466 0
0.363052 -0.00749117 0
0.359183 -0.00577253 0
0.355996 -0.00403946 0
0.515364 -0.00690512 0
0.512199 -0.00358929 0
0.509766 0 0
0.437178 -0.00539466 0
0.434281 -0.00280899 0
0.432129 0 0
0.355996 -0.00403946 0
0.353417 -0.00216141 0
0.351562 0 0
0.385343 -0.0153913 0
0.378654 -0.0131528 0
0.37276 -0.0111219 0
0.297225 -0.00963313 0
0.291362 -0.0082407 0
0.28622 -0.00698307 0
0.204258 -0.00490235 0
0.199677 -0.00421865 0
0.195664 -0.00360366 0
0.37276 -0.0111219 0
0.367559 -0.00924476 0
0.363052 -0.00749117 0
0.28622 -0.00698307 0
0.281708 -0.00582027 0
0.277817 -0.00473498 0
0.195664 -0.00360366 0
0.192149 -0.00303317 0
0.189121 -0.00250209 0
0.204258 -0.00490235 0
0.199677 -0.00421865 0
0.195664 -0.00360366 0
0.105716 -0.001339 0
0.103013 -0.00115581 0
0.100635 -0.000994303 0
0 0 0
0 0 0
0 0 0
0.195664 -0.00360366 0
0.192149 -0.00303317 0
0.189121 -0.00250209 0
0.100635 -0.000994303 0
0.098534 -0.000838502 0
0.0967127 -0.000696336 0
0 0 0
0 0 0
0 0 0
0.363052 -0.00749117 0
0.359183 -0.00577253 0
0.355996 -0.00403946 0
0.277817 -0.00473498 0
0.274487 -0.00366087 0
0.271764 -0.00257014 0
0.189121 -0.00250209 0
0.186535 -0.00197356 0
0.184431 -0.00142171 0
0.355996 -0.00403946 0
0.353417 -0.00216141 0
0.351562 0 0
0.271764 -0.00257014 0
0.26958 -0.00135869 0
0.268066 0 0
0.184431 -0.00142171 0
0.18276 -0.00079895 0
0.181641 0 0
0.189121 -0.00250209 0
0.186535 -0.00197356 0
0.184431 -0.00142171 0
0.0967127 -0.000696336 0
0.0951413 -0.000552269 0
0.0938911 -0.000394841 0
0 0 0
0 0 0
0 0 0
0.184431 -0.00142171 0
0.18276 -0.00079895 0
0.181641 0 0
0.0938911 -0.000394841 0
0.0928832 -0.000185987 0
0.0922852 0 0
0 0 0
0 0 0
0 0 0
1.59249 -0.448914 0
1.55599 -0.459515 0
1.51749 -0.465587 0
1.53945 -0.403598 0
1.50555 -0.413205 0
1.47018 -0.418838 0
1.48148 -0.362604 0
1.45091 -0.371423 0
1.41904 -0.376867 0
1.51749 -0.465587 0
1.47937 -0.466336 0
1.44034 -0.46229 0
1.47018 -0.418838 0
1.43513 -0.420319 0
1.39945 -0.417657 0
1.41904 -0.376867 0
1.38753 -0.378897 0
1.35549 -0.377338 0
1.48148 -0.362604 0
1.45091 -0.371423 0
1.41904 -0.376867 0
1.42492 -0.326831 0
1.39682 -0.333875 0
1.36767 -0.338163 0
1.3646 -0.291547 0
1.33775 -0.297676 0
1.31009 -0.301474 0
1.41904 -0.376867 0
1.38753 -0.378897 0
1.35549 -0.377338 0
1.36767 -0.338163 0
1.33867 -0.339624 0
1.30919 -0.338163 0
1.31009 -0.301474 0
1.28265 -0.302928 0
1.2549 -0.301925 0
1.44034 -0.46229 0
1.40443 -0.453579 0
1.36893 -0.44042 0
1.39945 -0.417657 0
1.36635 -0.410999 0
1.33367 -0.400847 0
1.35549 -0.377338 0
1.32547 -0.37246 0
1.2958 -0.3644 0
1.36893 -0.44042 0
1.33774 -0.424179 0
1.30796 -0.404791 0
1.33367 -0.400847 0
1.30459 -0.387667 0
1.2768 -0.37182 0
1.2958 -0.3644 0
1.26894 -0.353598 0
1.24317 -0.340304 0
1.35549 -0.377338 0
1.32547 -0.37246 0
1.2958 -0.3644 0
1.30919 -0.338163 0
1.28119 -0.333951 0
1.25341 -0.327091 0
1.2549 -0.301925 0
1.2284 -0.29861 0
1.20223 -0.293057 0
1.2958 -0.3644 0
1.26894 -0.353598 0
1.24317 -0.340304 0
1.25341 -0.327091 0
1.22786 -0.317969 0
1.20321 -0.306752 0
1.20223 -0.293057 0
1.17794 -0.285542 0
1.15455 -0.276194 0
1.3646 -0.291547 0
1.33775 -0.297676 0
1.31009 -0.301474 0
1.30037 -0.259336 0
1.27485 -0.264828 0
1.24867 -0.268272 0
1.23482 -0.228164 0
1.21036 -0.23313 0
1.18534 -0.236328 0
1.31009 -0.301474 0
1.28265 -0.302928 0
1.2549 -0.301925 0
1.24867 -0.268272 0
1.22277 -0.269666 0
1.19665 -0.268939 0
1.18534 -0.236328 0
1.16057 -0.237761 0
1.13563 -0.237361 0
1.23482 -0.228164 0
1.21036 -0.23313 0
1.18534 -0.236328 0
1.16729 -0.198385 0
1.14355 -0.202728 0
1.11931 -0.205551 0
1.09682 -0.169462 0
1.07351 -0.173369 0
1.04978 -0.175979 0
1.18534 -0.236328 0
1.16057 -0.237761 0
1.13563 -0.237361 0
1.11931 -0.205551 0
1.09531 -0.206874 0
1.07118 -0.206634 0
1.04978 -0.175979 0
1.0263 -0.17732 0
1.00274 -0.177328 0
1.2549 -0.301925 0
1.2284 -0.29861 0
1.20223 -0.293057 0
1.19665 -0.268939 0
1.17164 -0.266213 0
1.14693 -0.261536 0
1.13563 -0.237361 0
1.11161 -0.235231 0
1.0879 -0.231405 0
1.20223 -0.293057 0
1.17794 -0.285542 0
1.15455 -0.276194 0
1.14693 -0.261536 0
1.12381 -0.255143 0
1.10149 -0.247134 0
1.0879 -0.231405 0
1.06554 -0.226079 0
1.04392 -0.219333 0
1.13563 -0.237361 0
1.11161 -0.235231 0
1.0879 -0.231405 0
1.07118 -0.206634 0
1.04786 -0.204934 0
1.02484 -0.201781 0
1.00274 -0.177328 0
0.979917 -0.17609 0
0.957411 -0.173609 0
1.0879 -0.231405 0
1.06554 -0.226079 0
1.04392 -0.219333 0
1.02484 -0.201781 0
1.00301 -0.197352 0
0.981882 -0.191689 0
0.957411 -0.173609 0
0.935962 -0.170021 0
0.915193 -0.165364 0
1.30796 -0.404791 0
1.28303 -0.383777 0
1.26037 -0.36068 0
1.2768 -0.37182 0
1.25316 -0.353943 0
1.23152 -0.334558 0
1.24317 -0.340304 0
1.22065 -0.325166 0
1.19981 -0.308477 0
1.26037 -0.36068 0
1.24174 -0.337214 0
1.22562 -0.313106 0
1.23152 -0.334558 0
1.21336 -0.314306 0
1.19749 -0.293306 0
1.19981 -0.308477 0
1.18187 -0.290768 0
1.16589 -0.272271 0
1.24317 -0.340304 0
1.22065 -0.325166 0
1.19981 -0.308477 0
1.20321 -0.306752 0
1.18127 -0.29393 0
1.16078 -0.279688 0
1.15455 -0.276194 0
1.13346 -0.265371 0
1.11374 -0.253268 0
1.19981 -0.308477 0
1.18187 -0.290768 0
1.16589 -0.272271 0
1.16078 -0.279688 0
1.14285 -0.264519 0
1.1267 -0.248621 0
1.11374 -0.253268 0
1.09623 -0.240259 0
1.08034 -0.226512 0
1.22562 -0.313106 0
1.21309 -0.289335 0
1.20329 -0.265642 0
1.19749 -0.293306 0
1.18475 -0.272108 0
1.17439 -0.251048 0
1.16589 -0.272271 0
1.15253 -0.253519 0
1.14127 -0.234735 0
1.20329 -0.265642 0
1.19585 -0.242928 0
1.19061 -0.221294 0
1.17439 -0.251048 0
1.1661 -0.23046 0
1.16 -0.210357 0
1.14127 -0.234735 0
1.13198 -0.216269 0
1.12467 -0.198368 0
1.16589 -0.272271 0
1.15253 -0.253519 0
1.14127 -0.234735 0
1.1267 -0.248621 0
1.11297 -0.232405 0
1.10119 -0.216024 0
1.08034 -0.226512 0
1.0666 -0.212348 0
1.0546 -0.197945 0
1.14127 -0.234735 0
1.13198 -0.216269 0
1.12467 -0.198368 0
1.10119 -0.216024 0
1.09125 -0.199774 0
1.08315 -0.183809 0
1.0546 -0.197945 0
1.04423 -0.183547 0
1.03553 -0.169324 0
1.15455 -0.276194 0
1.13346 -0.265371 0
1.11374 -0.253268 0
1.10149 -0.247134 0
1.08113 -0.237828 0
1.06197 -0.227371 0
1.04392 -0.219333 0
1.02399 -0.211427 0
1.00516 -0.202488 0
1.11374 -0.253268 0
1.09623 -0.240259 0
1.08034 -0.226512 0
1.06197 -0.227371 0
1.04471 -0.216087 0
1.0289 -0.204103 0
1.00516 -0.202488 0
0.988023 -0.192782 0
0.972227 -0.182428 0
1.04392 -0.219333 0
1.02399 -0.211427 0
1.00516 -0.202488 0
0.981882 -0.191689 0
0.962235 -0.185018 0
0.943634 -0.17743 0
0.915193 -0.165364 0
0.895736 -0.159817 0
0.87727 -0.153462 0
1.00516 -0.202488 0
0.988023 -0.192782 0
0.972227 -0.182428 0
0.943634 -0.17743 0
0.926539 -0.169153 0
0.910701 -0.160282 0
0.87727 -0.153462 0
0.86016 -0.14648 0
0.844235 -0.138958 0
1.08034 -0.226512 0
1.0666 -0.212348 0
1.0546 -0.197945 0
1.0289 -0.204103 0
1.01497 -0.191722 0
1.00264 -0.179102 0
0.972227 -0.182428 0
0.958144 -0.171679 0
0.94554 -0.160674 0
1.0546 -0.197945 0
1.04423 -0.183547 0
1.03553 -0.169324 0
1.00264 -0.179102 0
0.991813 -0.166464 0
0.982529 -0.153903 0
0.94554 -0.160674 0
0.934357 -0.149589 0
0.924623 -0.138529 0
0.972227 -0.182428 0
0.958144 -0.171679 0
0.94554 -0.160674 0
0.910701 -0.160282 0
0.89641 -0.151029 0
0.883499 -0.141513 0
0.844235 -0.138958 0
0.829722 -0.131072 0
0.816518 -0.122932 0
0.94554 -0.160674 0
0.934357 -0.149589 0
0.924623 -0.138529 0
0.883499 -0.141513 0
0.871906 -0.131894 0
0.861667 -0.122269 0
0.816518 -0.122932 0
0.804567 -0.114675 0
0.793924 -0.106384 0
1.09682 -0.169462 0
1.07351 -0.173369 0
1.04978 -0.175979 0
1.02415 -0.141972 0
1.00114 -0.145416 0
0.977762 -0.147753 0
0.948323 -0.114868 0
0.925516 -0.117942 0
0.902323 -0.120086 0
1.04978 -0.175979 0
1.0263 -0.17732 0
1.00274 -0.177328 0
0.977762 -0.147753 0
0.954622 -0.149007 0
0.931432 -0.149127 0
0.902323 -0.120086 0
0.879363 -0.121327 0
0.856354 -0.121616 0
0.948323 -0.114868 0
0.925516 -0.117942 0
0.902323 -0.120086 0
0.866837 -0.0885866 0
0.84438 -0.091234 0
0.821512 -0.0931214 0
0.773049 -0.0631936 0
0.751507 -0.065396 0
0.729446 -0.0670131 0
0.902323 -0.120086 0
0.879363 -0.121327 0
0.856354 -0.121616 0
0.821512 -0.0931214 0
0.798814 -0.0942718 0
0.776042 -0.094649 0
0.729446 -0.0670131 0
0.707469 -0.0680657 0
0.685347 -0.0685208 0
1.00274 -0.177328 0
0.979917 -0.17609 0
0.957411 -0.173609 0
0.931432 -0.149127 0
0.9089 -0.148189 0
0.88668 -0.146194 0
0.856354 -0.121616 0
0.833938 -0.121023 0
0.81183 -0.119544 0
0.957411 -0.173609 0
0.935962 -0.170021 0
0.915193 -0.165364 0
0.88668 -0.146194 0
0.865406 -0.143263 0
0.844783 -0.139421 0
0.81183 -0.119544 0
0.79058 -0.117279 0
0.769967 -0.114249 0
0.856354 -0.121616 0
0.833938 -0.121023 0
0.81183 -0.119544 0
0.776042 -0.094649 0
0.753782 -0.0943101 0
0.731802 -0.0932491 0
0.685347 -0.0685208 0
0.663638 -0.068425 0
0.642153 -0.0677701 0
0.81183 -0.119544 0
0.79058 -0.117279 0
0.769967 -0.114249 0
0.731802 -0.0932491 0
0.710593 -0.0915501 0
0.689988 -0.0892264 0
0.642153 -0.0677701 0
0.621341 -0.0666227 0
0.601086 -0.0649915 0
0.773049 -0.0631936 0
0.751507 -0.065396 0
0.729446 -0.0670131 0
0.656263 -0.0398392 0
0.636818 -0.0414599 0
0.616729 -0.0426746 0
0.499071 -0.0191884 0
0.483654 -0.02017 0
0.467499 -0.0209289 0
0.729446 -0.0670131 0
0.707469 -0.0680657 0
0.685347 -0.0685208 0
0.616729 -0.0426746 0
0.596563 -0.0434976 0
0.576139 -0.043903 0
0.467499 -0.0209289 0
0.451118 -0.0214815 0
0.434386 -0.0218017 0
0.499071 -0.0191884 0
0.483654 -0.02017 0
0.467499 -0.0209289 0
0.283375 -0.00548002 0
0.274501 -0.00579072 0
0.265008 -0.00602463 0
0 0 0
0 0 0
0 0 0
0.467499 -0.0209289 0
0.451118 -0.0214815 0
0.434386 -0.0218017 0
0.265008 -0.00602463 0
0.255292 -0.00620149 0
0.245236 -0.00629434 0
0 0 0
0 0 0
0 0 0
0.685347 -0.0685208 0
0.663638 -0.068425 0
0.642153 -0.0677701 0
0.576139 -0.043903 0
0.555978 -0.0439261 0