# vtk DataFile Version 3.0
#This file was generated by the deal.II library on 2025/1/3 at 15:05:52
ASCII
DATASET UNSTRUCTURED_GRID

POINTS 34560 double
1.1 1.1 0
1.03125 1.09531 0
0.9625 1.09063 0
1.09375 1.03125 0
1.02539 1.02686 0
0.957031 1.02246 0
1.0875 0.9625 0
1.01953 0.958398 0
0.951563 0.954297 0
0.9625 1.09063 0
0.89375 1.08594 0
0.825 1.08125 0
0.957031 1.02246 0
0.888672 1.01807 0
0.820312 1.01367 0
0.951563 0.954297 0
0.883594 0.950195 0
0.815625 0.946094 0
1.0875 0.9625 0
1.01953 0.958398 0
0.951563 0.954297 0
1.08125 0.89375 0
1.01367 0.889941 0
0.946094 0.886133 0
1.075 0.825 0
1.00781 0.821484 0
0.940625 0.817969 0
0.951563 0.954297 0
0.883594 0.950195 0
0.815625 0.946094 0
0.946094 0.886133 0
0.878516 0.882324 0
0.810938 0.878516 0
0.940625 0.817969 0
0.873438 0.814453 0
0.80625 0.810937 0
0.825 1.08125 0
0.75625 1.07656 0
0.6875 1.07187 0
0.820312 1.01367 0
0.751953 1.00928 0
0.683594 1.00488 0
0.815625 0.946094 0
0.747656 0.941992 0
0.679688 0.937891 0
0.6875 1.07187 0
0.61875 1.06719 0
0.55 1.0625 0
0.683594 1.00488 0
0.615234 1.00049 0
0.546875 0.996094 0
0.679688 0.937891 0
0.611719 0.933789 0
0.54375 0.929688 0
0.815625 0.946094 0
0.747656 0.941992 0
0.679688 0.937891 0
0.810938 0.878516 0
0.743359 0.874707 0
0.675781 0.870898 0
0.80625 0.810937 0
0.739063 0.807422 0
0.671875 0.803906 0
0.679688 0.937891 0
0.611719 0.933789 0
0.54375 0.929688 0
0.675781 0.870898 0
0.608203 0.86709 0
0.540625 0.863281 0
0.671875 0.803906 0
0.604688 0.800391 0
0.5375 0.796875 0
1.075 0.825 0
1.00781 0.821484 0
0.940625 0.817969 0
1.06875 0.75625 0
1.00195 0.753027 0
0.935156 0.749805 0
1.0625 0.6875 0
0.996094 0.68457 0
0.929688 0.681641 0
0.940625 0.817969 0
0.873438 0.814453 0
0.80625 0.810937 0
0.935156 0.749805 0
0.868359 0.746582 0
0.801563 0.743359 0
0.929688 0.681641 0
0.863281 0.678711 0
0.796875 0.675781 0
1.0625 0.6875 0
0.996094 0.68457 0
0.929688 0.681641 0
1.05625 0.61875 0
0.990234 0.616113 0
0.924219 0.613477 0
1.05 0.55 0
0.984375 0.547656 0
0.91875 0.545313 0
0.929688 0.681641 0
0.863281 0.678711 0
0.796875 0.675781 0
0.924219 0.613477 0
0.858203 0.61084 0
0.792188 0.608203 0
0.91875 0.545313 0
0.853125 0.542969 0
0.7875 0.540625 0
0.80625 0.810937 0
0.739063 0.807422 0
0.671875 0.803906 0
0.801563 0.743359 0
0.734766 0.740137 0
0.667969 0.736914 0
0.796875 0.675781 0
0.730469 0.672852 0
0.664062 0.669922 0
0.671875 0.803906 0
0.604688 0.800391 0
0.5375 0.796875 0
0.667969 0.736914 0
0.601172 0.733691 0
0.534375 0.730469 0
0.664062 0.669922 0
0.597656 0.666992 0
0.53125 0.664062 0
0.796875 0.675781 0
0.730469 0.672852 0
0.664062 0.669922 0
0.792188 0.608203 0
0.726172 0.605566 0
0.660156 0.60293 0
0.7875 0.540625 0
0.721875 0.538281 0
0.65625 0.535937 0
0.664062 0.669922 0
0.597656 0.666992 0
0.53125 0.664062 0
0.660156 0.60293 0
0.594141 0.600293 0
0.528125 0.597656 0
0.65625 0.535937 0
0.590625 0.533594 0
0.525 0.53125 0
0.55 1.0625 0
0.48125 1.05781 0
0.4125 1.05313 0
0.546875 0.996094 0
0.478516 0.991699 0
0.410156 0.987305 0
0.54375 0.929688 0
0.475781 0.925586 0
0.407813 0.921484 0
0.4125 1.05313 0
0.34375 1.04844 0
0.275 1.04375 0
0.410156 0.987305 0
0.341797 0.98291 0
0.273438 0.978516 0
0.407813 0.921484 0
0.339844 0.917383 0
0.271875 0.913281 0
0.54375 0.929688 0
0.475781 0.925586 0
0.407813 0.921484 0
0.540625 0.863281 0
0.473047 0.859473 0
0.405469 0.855664 0
0.5375 0.796875 0
0.470313 0.793359 0
0.403125 0.789844 0
0.407813 0.921484 0
0.339844 0.917383 0
0.271875 0.913281 0
0.405469 0.855664 0
0.337891 0.851855 0
0.270313 0.848047 0
0.403125 0.789844 0
0.335938 0.786328 0
0.26875 0.782813 0
0.275 1.04375 0
0.20625 1.03906 0
0.1375 1.03437 0
0.273438 0.978516 0
0.205078 0.974121 0
0.136719 0.969727 0
0.271875 0.913281 0
0.203906 0.90918 0
0.135938 0.905078 0
0.1375 1.03437 0
0.06875 1.02969 0
0 1.025 0
0.136719 0.969727 0
0.0683594 0.965332 0
0 0.960937 0
0.135938 0.905078 0
0.0679688 0.900977 0
0 0.896875 0
0.271875 0.913281 0
0.203906 0.90918 0
0.135938 0.905078 0
0.270313 0.848047 0
0.202734 0.844238 0
0.135156 0.84043 0
0.26875 0.782813 0
0.201563 0.779297 0
0.134375 0.775781 0
0.135938 0.905078 0
0.0679688 0.900977 0
0 0.896875 0
0.135156 0.84043 0
0.0675781 0.836621 0
0 0.832812 0
0.134375 0.775781 0
0.0671875 0.772266 0
0 0.76875 0
0.5375 0.796875 0
0.470313 0.793359 0
0.403125 0.789844 0
0.534375 0.730469 0
0.467578 0.727246 0
0.400781 0.724023 0
0.53125 0.664062 0
0.464844 0.661133 0
0.398438 0.658203 0
0.403125 0.789844 0
0.335938 0.786328 0
0.26875 0.782813 0
0.400781 0.724023 0
0.333984 0.720801 0
0.267188 0.717578 0
0.398438 0.658203 0
0.332031 0.655273 0
0.265625 0.652344 0
0.53125 0.664062 0
0.464844 0.661133 0
0.398438 0.658203 0
0.528125 0.597656 0
0.462109 0.59502 0
0.396094 0.592383 0
0.525 0.53125 0
0.459375 0.528906 0
0.39375 0.526563 0
0.398438 0.658203 0
0.332031 0.655273 0
0.265625 0.652344 0
0.396094 0.592383 0
0.330078 0.589746 0
0.264062 0.587109 0
0.39375 0.526563 0
0.328125 0.524219 0
0.2625 0.521875 0
0.26875 0.782813 0
0.201563 0.779297 0
0.134375 0.775781 0
0.267188 0.717578 0
0.200391 0.714355 0
0.133594 0.711133 0
0.265625 0.652344 0
0.199219 0.649414 0
0.132812 0.646484 0
0.134375 0.775781 0
0.0671875 0.772266 0
0 0.76875 0
0.133594 0.711133 0
0.0667969 0.70791 0
0 0.704687 0
0.132812 0.646484 0
0.0664062 0.643555 0
0 0.640625 0
0.265625 0.652344 0
0.199219 0.649414 0
0.132812 0.646484 0
0.264062 0.587109 0
0.198047 0.584473 0
0.132031 0.581836 0
0.2625 0.521875 0
0.196875 0.519531 0
0.13125 0.517187 0
0.132812 0.646484 0
0.0664062 0.643555 0
0 0.640625 0
0.132031 0.581836 0
0.0660156 0.579199 0
0 0.576562 0
0.13125 0.517187 0
0.065625 0.514844 0
0 0.5125 0
1.05 0.55 0
0.984375 0.547656 0
0.91875 0.545313 0
1.04375 0.48125 0
0.978516 0.479199 0
0.913281 0.477148 0
1.0375 0.4125 0
0.972656 0.410742 0
0.907813 0.408984 0
0.91875 0.545313 0
0.853125 0.542969 0
0.7875 0.540625 0
0.913281 0.477148 0
0.848047 0.475098 0
0.782813 0.473047 0
0.907813 0.408984 0
0.842969 0.407227 0
0.778125 0.405469 0
1.0375 0.4125 0
0.972656 0.410742 0
0.907813 0.408984 0
1.03125 0.34375 0
0.966797 0.342285 0
0.902344 0.34082 0
1.025 0.275 0
0.960937 0.273828 0
0.896875 0.272656 0
0.907813 0.408984 0
0.842969 0.407227 0
0.778125 0.405469 0
0.902344 0.34082 0
0.837891 0.339355 0
0.773438 0.337891 0
0.896875 0.272656 0
0.832812 0.271484 0
0.76875 0.270313 0
0.7875 0.540625 0
0.721875 0.538281 0
0.65625 0.535937 0
0.782813 0.473047 0
0.717578 0.470996 0
0.652344 0.468945 0
0.778125 0.405469 0
0.713281 0.403711 0
0.648438 0.401953 0
0.65625 0.535937 0
0.590625 0.533594 0
0.525 0.53125 0
0.652344 0.468945 0
0.587109 0.466895 0
0.521875 0.464844 0
0.648438 0.401953 0
0.583594 0.400195 0
0.51875 0.398438 0
0.778125 0.405469 0
0.713281 0.403711 0
0.648438 0.401953 0
0.773438 0.337891 0
0.708984 0.336426 0
0.644531 0.334961 0
0.76875 0.270313 0
0.704687 0.269141 0
0.640625 0.267969 0
0.648438 0.401953 0
0.583594 0.400195 0
0.51875 0.398438 0
0.644531 0.334961 0
0.580078 0.333496 0
0.515625 0.332031 0
0.640625 0.267969 0
0.576562 0.266797 0
0.5125 0.265625 0
1.025 0.275 0
0.960937 0.273828 0
0.896875 0.272656 0
1.01875 0.20625 0
0.955078 0.205371 0
0.891406 0.204492 0
1.0125 0.1375 0
0.949219 0.136914 0
0.885937 0.136328 0
0.896875 0.272656 0
0.832812 0.271484 0
0.76875 0.270313 0
0.891406 0.204492 0
0.827734 0.203613 0
0.764062 0.202734 0
0.885937 0.136328 0
0.822656 0.135742 0
0.759375 0.135156 0
1.0125 0.1375 0
0.949219 0.136914 0
0.885937 0.136328 0
1.00625 0.06875 0
0.943359 0.068457 0
0.880469 0.0681641 0
1 0 0
0.9375 0 0
0.875 0 0
0.885937 0.136328 0
0.822656 0.135742 0
0.759375 0.135156 0
0.880469 0.0681641 0
0.817578 0.0678711 0
0.754687 0.0675781 0
0.875 0 0
0.8125 0 0
0.75 0 0
0.76875 0.270313 0
0.704687 0.269141 0
0.640625 0.267969 0
0.764062 0.202734 0
0.700391 0.201855 0
0.636719 0.200977 0
0.759375 0.135156 0
0.696094 0.13457 0
0.632812 0.133984 0
0.640625 0.267969 0
0.576562 0.266797 0
0.5125 0.265625 0
0.636719 0.200977 0
0.573047 0.200098 0
0.509375 0.199219 0
0.632812 0.133984 0
0.569531 0.133398 0
0.50625 0.132812 0
0.759375 0.135156 0
0.696094 0.13457 0
0.632812 0.133984 0
0.754687 0.0675781 0
0.691797 0.0672852 0
0.628906 0.0669922 0
0.75 0 0
0.6875 0 0
0.625 0 0
0.632812 0.133984 0
0.569531 0.133398 0
0.50625 0.132812 0
0.628906 0.0669922 0
0.566016 0.0666992 0
0.503125 0.0664062 0
0.625 0 0
0.5625 0 0
0.5 0 0
0.525 0.53125 0
0.459375 0.528906 0
0.39375 0.526563 0
0.521875 0.464844 0
0.456641 0.462793 0
0.391406 0.460742 0
0.51875 0.398438 0
0.453906 0.39668 0
0.389063 0.394922 0
0.39375 0.526563 0
0.328125 0.524219 0
0.2625 0.521875 0
0.391406 0.460742 0
0.326172 0.458691 0
0.260938 0.456641 0
0.389063 0.394922 0
0.324219 0.393164 0
0.259375 0.391406 0
0.51875 0.398438 0
0.453906 0.39668 0
0.389063 0.394922 0
0.515625 0.332031 0
0.451172 0.330566 0
0.386719 0.329102 0
0.5125 0.265625 0
0.448437 0.264453 0
0.384375 0.263281 0
0.389063 0.394922 0
0.324219 0.393164 0
0.259375 0.391406 0
0.386719 0.329102 0
0.322266 0.327637 0
0.257812 0.326172 0
0.384375 0.263281 0
0.320312 0.262109 0
0.25625 0.260937 0
0.2625 0.521875 0
0.196875 0.519531 0
0.13125 0.517187 0
0.260938 0.456641 0
0.195703 0.45459 0
0.130469 0.452539 0
0.259375 0.391406 0
0.194531 0.389648 0
0.129688 0.387891 0
0.13125 0.517187 0
0.065625 0.514844 0
0 0.5125 0
0.130469 0.452539 0
0.0652344 0.450488 0
0 0.448437 0
0.129688 0.387891 0
0.0648438 0.386133 0
0 0.384375 0
0.259375 0.391406 0
0.194531 0.389648 0
0.129688 0.387891 0
0.257812 0.326172 0
0.193359 0.324707 0
0.128906 0.323242 0
0.25625 0.260937 0
0.192187 0.259766 0
0.128125 0.258594 0
0.129688 0.387891 0
0.0648438 0.386133 0
0 0.384375 0
0.128906 0.323242 0
0.0644531 0.321777 0
0 0.320312 0
0.128125 0.258594 0
0.0640625 0.257422 0
0 0.25625 0
0.5125 0.265625 0
0.448437 0.264453 0
0.384375 0.263281 0
0.509375 0.199219 0
0.445703 0.19834 0
0.382031 0.197461 0
0.50625 0.132812 0
0.442969 0.132227 0
0.379688 0.131641 0
0.384375 0.263281 0
0.320312 0.262109 0
0.25625 0.260937 0
0.382031 0.197461 0
0.318359 0.196582 0
0.254687 0.195703 0
[...]
POINT_DATA 34560
VECTORS v double
1.27291 -0.333718 0
1.25412 -0.305998 0
1.23746 -0.280123 0
1.2395 -0.312224 0
1.21908 -0.288056 0
1.20098 -0.264575 0
1.20112 -0.290759 0
1.1797 -0.269212 0
1.16024 -0.247999 0
1.23746 -0.280123 0
1.22273 -0.254847 0
1.20992 -0.230893 0
1.20098 -0.264575 0
1.18456 -0.241639 0
1.17038 -0.219552 0
1.16024 -0.247999 0
1.14264 -0.227185 0
1.12706 -0.206868 0
1.20112 -0.290759 0
1.1797 -0.269212 0
1.16024 -0.247999 0
1.15699 -0.266921 0
1.13459 -0.248068 0
1.11416 -0.22934 0
1.10667 -0.243829 0
1.08384 -0.227394 0
1.0628 -0.210868 0
1.16024 -0.247999 0
1.14264 -0.227185 0
1.12706 -0.206868 0
1.11416 -0.22934 0
1.09554 -0.210762 0
1.0789 -0.192486 0
1.0628 -0.210868 0
1.04357 -0.194323 0
1.02622 -0.177898 0
1.20992 -0.230893 0
1.19816 -0.207717 0
1.18807 -0.185543 0
1.17038 -0.219552 0
1.1571 -0.19801 0
1.1458 -0.177275 0
1.12706 -0.206868 0
1.11261 -0.186997 0
1.10006 -0.167678 0
1.18807 -0.185543 0
1.17846 -0.164135 0
1.17023 -0.143517 0
1.1458 -0.177275 0
1.13492 -0.157067 0
1.1257 -0.137553 0
1.10006 -0.167678 0
1.08816 -0.148793 0
1.07792 -0.130438 0
1.12706 -0.206868 0
1.11261 -0.186997 0
1.10006 -0.167678 0
1.0789 -0.192486 0
1.0635 -0.174438 0
1.04996 -0.156775 0
1.02622 -0.177898 0
1.01016 -0.161566 0
0.995909 -0.145469 0
1.10006 -0.167678 0
1.08816 -0.148793 0
1.07792 -0.130438 0
1.04996 -0.156775 0
1.03725 -0.139387 0
1.0262 -0.122389 0
0.995909 -0.145469 0
0.982605 -0.129538 0
0.970945 -0.113879 0
1.10667 -0.243829 0
1.08384 -0.227394 0
1.0628 -0.210868 0
1.0512 -0.220285 0
1.02816 -0.20609 0
1.0068 -0.191661 0
0.991229 -0.197299 0
0.968173 -0.185083 0
0.94665 -0.172547 0
1.0628 -0.210868 0
1.04357 -0.194323 0
1.02622 -0.177898 0
1.0068 -0.191661 0
0.987164 -0.177072 0
0.969305 -0.16248 0
0.94665 -0.172547 0
0.926757 -0.159777 0
0.908539 -0.146911 0
0.991229 -0.197299 0
0.968173 -0.185083 0
0.94665 -0.172547 0
0.926794 -0.173662 0
0.903786 -0.163322 0
0.882224 -0.15263 0
0.857982 -0.150779 0
0.835202 -0.142132 0
0.813753 -0.133118 0
0.94665 -0.172547 0
0.926757 -0.159777 0
0.908539 -0.146911 0
0.882224 -0.15263 0
0.862196 -0.141658 0
0.843767 -0.13053 0
0.813753 -0.133118 0
0.793745 -0.123799 0
0.775247 -0.114291 0
1.02622 -0.177898 0
1.01016 -0.161566 0
0.995909 -0.145469 0
0.969305 -0.16248 0
0.952766 -0.147871 0
0.93797 -0.133381 0
0.908539 -0.146911 0
0.891652 -0.133954 0
0.876443 -0.121028 0
0.995909 -0.145469 0
0.982605 -0.129538 0
0.970945 -0.113879 0
0.93797 -0.133381 0
0.924215 -0.118963 0
0.912082 -0.104718 0
0.876443 -0.121028 0
0.862349 -0.108102 0
0.849853 -0.095272 0
0.908539 -0.146911 0
0.891652 -0.133954 0
0.876443 -0.121028 0
0.843767 -0.13053 0
0.826654 -0.119249 0
0.81117 -0.107932 0
0.775247 -0.114291 0
0.758036 -0.1046 0
0.742392 -0.0948282 0
0.876443 -0.121028 0
0.862349 -0.108102 0
0.849853 -0.095272 0
0.81117 -0.107932 0
0.796844 -0.0965543 0
0.784098 -0.0852053 0
0.742392 -0.0948282 0
0.727935 -0.0849593 0
0.715032 -0.0750722 0
1.17023 -0.143517 0
1.1623 -0.123579 0
1.15551 -0.104293 0
1.1257 -0.137553 0
1.11679 -0.118548 0
1.10925 -0.100146 0
1.07792 -0.130438 0
1.06819 -0.112511 0
1.05988 -0.0950879 0
1.15551 -0.104293 0
1.14888 -0.0856204 0
1.14317 -0.0674993 0
1.10925 -0.100146 0
1.10192 -0.0822448 0
1.09571 -0.0648659 0
1.05988 -0.0950879 0
1.05196 -0.0781052 0
1.04524 -0.0615873 0
1.07792 -0.130438 0
1.06819 -0.112511 0
1.05988 -0.0950879 0
1.0262 -0.122389 0
1.01584 -0.105703 0
1.00692 -0.08942 0
0.970945 -0.113879 0
0.960102 -0.0984482 0
0.95072 -0.0833317 0
1.05988 -0.0950879 0
1.05196 -0.0781052 0
1.04524 -0.0615873 0
1.00692 -0.08942 0
0.998571 -0.0735003 0
0.991464 -0.057975 0
0.95072 -0.0833317 0
0.942041 -0.0685156 0
0.934642 -0.0540365 0
1.14317 -0.0674993 0
1.13773 -0.0499189 0
1.13307 -0.0328143 0
1.09571 -0.0648659 0
1.08984 -0.0479761 0
1.08492 -0.0315514 0
1.04524 -0.0615873 0
1.03901 -0.0455222 0
1.03383 -0.0299053 0
1.13307 -0.0328143 0
1.1287 -0.0161916 0
1.125 0 0
1.08492 -0.0315514 0
1.08038 -0.0155855 0
1.07666 0 0
1.03383 -0.0299053 0
1.02915 -0.0147426 0
1.02539 0 0
1.04524 -0.0615873 0
1.03901 -0.0455222 0
1.03383 -0.0299053 0
0.991464 -0.057975 0
0.984998 -0.0428544 0
0.97963 -0.0281526 0
0.934642 -0.0540365 0
0.927996 -0.0399289 0
0.922492 -0.0262097 0
1.03383 -0.0299053 0
1.02915 -0.0147426 0
1.02539 0 0
0.97963 -0.0281526 0
0.974916 -0.0138854 0
0.971191 0 0
0.922492 -0.0262097 0
0.917757 -0.0129117 0
0.914062 0 0
0.970945 -0.113879 0
0.960102 -0.0984482 0
0.95072 -0.0833317 0
0.912082 -0.104718 0
0.900873 -0.090621 0
0.891134 -0.0767562 0
0.849853 -0.095272 0
0.83837 -0.082525 0
0.828361 -0.0699409 0
0.95072 -0.0833317 0
0.942041 -0.0685156 0
0.934642 -0.0540365 0
0.891134 -0.0767562 0
0.882217 -0.0631282 0
0.874611 -0.0497822 0
0.828361 -0.0699409 0
0.81928 -0.0575403 0
0.811537 -0.045371 0
0.849853 -0.095272 0
0.83837 -0.082525 0
0.828361 -0.0699409 0
0.784098 -0.0852053 0
0.772434 -0.0738778 0
0.762252 -0.0626493 0
0.715032 -0.0750722 0
0.703264 -0.0651642 0
0.692982 -0.0553039 0
0.828361 -0.0699409 0
0.81928 -0.0575403 0
0.811537 -0.045371 0
0.762252 -0.0626493 0
0.753084 -0.0515461 0
0.745279 -0.0406236 0
0.692982 -0.0553039 0
0.683788 -0.0455232 0
0.675981 -0.0358773 0
0.934642 -0.0540365 0
0.927996 -0.0399289 0
0.922492 -0.0262097 0
0.874611 -0.0497822 0
0.867857 -0.0367662 0
0.862286 -0.0241083 0
0.811537 -0.045371 0
0.80473 -0.0334966 0
0.799138 -0.0219508 0
0.922492 -0.0262097 0
0.917757 -0.0129117 0
0.914062 0 0
0.862286 -0.0241083 0
0.857596 -0.011858 0
0.854004 0 0
0.799138 -0.0219508 0
0.794511 -0.0107966 0
0.791016 0 0
0.811537 -0.045371 0
0.80473 -0.0334966 0
0.799138 -0.0219508 0
0.745279 -0.0406236 0
0.738482 -0.0299544 0
0.732932 -0.0195846 0
0.675981 -0.0358773 0
0.669244 -0.0264475 0
0.66378 -0.017284 0
0.799138 -0.0219508 0
0.794511 -0.0107966 0
0.791016 0 0
0.732932 -0.0195846 0
0.728427 -0.00959252 0
0.725098 0 0
0.66378 -0.017284 0
0.659418 -0.00847887 0
0.65625 0 0
0.857982 -0.150779 0
0.835202 -0.142132 0
0.813753 -0.133118 0
0.785253 -0.127672 0
0.762739 -0.120571 0
0.741476 -0.113124 0
0.70838 -0.105179 0
0.686258 -0.0995053 0
0.665292 -0.0935195 0
0.813753 -0.133118 0
0.793745 -0.123799 0
0.775247 -0.114291 0
0.741476 -0.113124 0
0.72155 -0.105381 0
0.703062 -0.0974446 0
0.665292 -0.0935195 0
0.64557 -0.0872597 0
0.627209 -0.080819 0
0.70838 -0.105179 0
0.686258 -0.0995053 0
0.665292 -0.0935195 0
0.627139 -0.0825974 0
0.605506 -0.0782258 0
0.584965 -0.0735993 0
0.53973 -0.0608212 0
0.518921 -0.057664 0
0.499124 -0.0543125 0
0.665292 -0.0935195 0
0.64557 -0.0872597 0
0.627209 -0.080819 0
0.584965 -0.0735993 0
0.565569 -0.0687409 0
0.54747 -0.0637318 0
0.499124 -0.0543125 0
0.480377 -0.0507767 0
0.462851 -0.0471285 0
0.775247 -0.114291 0
0.758036 -0.1046 0
0.742392 -0.0948282 0
0.703062 -0.0974446 0
0.685823 -0.0893186 0
0.670103 -0.0810928 0
0.627209 -0.080819 0
0.610053 -0.0741951 0
0.594361 -0.0674681 0
0.742392 -0.0948282 0
0.727935 -0.0849593 0
0.715032 -0.0750722 0
0.670103 -0.0810928 0
0.655581 -0.0727499 0
0.642591 -0.0643594 0
0.594361 -0.0674681 0
0.579864 -0.0606201 0
0.566871 -0.0537104 0
0.627209 -0.080819 0
0.610053 -0.0741951 0
0.594361 -0.0674681 0
0.54747 -0.0637318 0
0.530521 -0.0585645 0
0.514981 -0.0533076 0
0.462851 -0.0471285 0
0.446408 -0.0433538 0
0.431303 -0.0395125 0
0.594361 -0.0674681 0
0.579864 -0.0606201 0
0.566871 -0.0537104 0
0.514981 -0.0533076 0
0.500619 -0.047942 0
0.487728 -0.0425166 0
0.431303 -0.0395125 0
0.417335 -0.0355834 0
0.40478 -0.0316084 0
0.53973 -0.0608212 0
0.518921 -0.057664 0
0.499124 -0.0543125 0
0.443126 -0.0397517 0
0.423703 -0.0376703 0
0.405237 -0.0354666 0
0.329276 -0.0206752 0
0.312744 -0.0196016 0
0.297041 -0.0184712 0
0.499124 -0.0543125 0
0.480377 -0.0507767 0
0.462851 -0.0471285 0
0.405237 -0.0354666 0
0.38771 -0.0331371 0
0.371333 -0.0307418 0
0.297041 -0.0184712 0
0.282135 -0.0172642 0
0.268231 -0.0160302 0
0.329276 -0.0206752 0
0.312744 -0.0196016 0
0.297041 -0.0184712 0
0.185678 -0.00612079 0
0.17493 -0.00577496 0
0.164824 -0.00542763 0
0 0 0
0 0 0
0 0 0
0.297041 -0.0184712 0
0.282135 -0.0172642 0
0.268231 -0.0160302 0
0.164824 -0.00542763 0
0.155201 -0.00504707 0
0.14632 -0.00467431 0
0 0 0
0 0 0
0 0 0
0.462851 -0.0471285 0
0.446408 -0.0433538 0
0.431303 -0.0395125 0
0.371333 -0.0307418 0
0.355945 -0.0282613 0
0.341815 -0.0257447 0
0.268231 -0.0160302 0
0.255174 -0.0147444 0
0.243205 -0.0134472 0
0.431303 -0.0395125 0
0.417335 -0.0355834 0
0.40478 -0.0316084 0
0.341815 -0.0257447 0
0.328739 -0.0231703 0
0.316992 -0.0205733 0
0.243205 -0.0134472 0
0.232139 -0.0121164 0
0.222213 -0.0107819 0
0.268231 -0.0160302 0
0.255174 -0.0147444 0
0.243205 -0.0134472 0
0.14632 -0.00467431 0
0.137958 -0.00427583 0
0.130379 -0.00388733 0
0 0 0
0 0 0
0 0 0
0.243205 -0.0134472 0
0.232139 -0.0121164 0
0.222213 -0.0107819 0
0.130379 -0.00388733 0
0.12335 -0.00348091 0
0.11712 -0.00308535 0
0 0 0
0 0 0
0 0 0
0.715032 -0.0750722 0
0.703264 -0.0651642 0
0.692982 -0.0553039 0
0.642591 -0.0643594 0
0.630778 -0.0559163 0
0.620457 -0.0474798 0
0.566871 -0.0537104 0
0.555082 -0.0467309 0
0.544787 -0.0397309 0
0.692982 -0.0553039 0
0.683788 -0.0455232 0
0.675981 -0.0358773 0
0.620457 -0.0474798 0
0.611289 -0.0390782 0
0.603534 -0.0307671 0
0.544787 -0.0397309 0
0.535696 -0.0327324 0
0.528045 -0.0257846 0
0.566871 -0.0537104 0
0.555082 -0.0467309 0
0.544787 -0.0397309 0
0.487728 -0.0425166 0
0.476049 -0.0370195 0
0.465858 -0.0314887 0
0.40478 -0.0316084 0
0.393417 -0.0275715 0
0.383506 -0.0235005 0
0.544787 -0.0397309 0
0.535696 -0.0327324 0
0.528045 -0.0257846 0
0.465858 -0.0314887 0
0.456908 -0.0259355 0
0.449419 -0.0203994 0
0.383506 -0.0235005 0
0.374841 -0.0193947 0
0.367634 -0.0152834 0
0.675981 -0.0358773 0
0.669244 -0.0264475 0
0.66378 -0.017284 0
0.603534 -0.0307671 0
0.596907 -0.0226286 0
0.59158 -0.0147245 0
0.528045 -0.0257846 0
0.521571 -0.018967 0
0.516425 -0.0123424 0
0.66378 -0.017284 0
0.659418 -0.00847887 0
0.65625 0 0
0.59158 -0.0147245 0
0.587413 -0.00715912 0
0.584473 0 0
0.516425 -0.0123424 0
0.512479 -0.00602889 0
0.509766 0 0
0.528045 -0.0257846 0
0.521571 -0.018967 0
0.516425 -0.0123424 0
0.449419 -0.0203994 0
0.443149 -0.014947 0
0.438232 -0.00965014 0
0.367634 -0.0152834 0
0.361664 -0.0112144 0
0.357054 -0.00724278 0
0.516425 -0.0123424 0
0.512479 -0.00602889 0
0.509766 0 0
0.438232 -0.00965014 0
0.434551 -0.0046286 0
0.432129 0 0
0.357054 -0.00724278 0
0.353687 -0.00350547 0
0.351562 0 0
0.40478 -0.0316084 0
0.393417 -0.0275715 0
0.383506 -0.0235005 0
0.316992 -0.0205733 0
0.306363 -0.0179364 0
0.297107 -0.0152779 0
0.222213 -0.0107819 0
0.213244 -0.00942595 0
0.205452 -0.00806172 0
0.383506 -0.0235005 0
0.374841 -0.0193947 0
0.367634 -0.0152834 0
0.297107 -0.0152779 0
0.289039 -0.0125896 0
0.282371 -0.00988972 0
0.205452 -0.00806172 0
0.198672 -0.00667729 0
0.193101 -0.00528774 0
0.222213 -0.0107819 0
0.213244 -0.00942595 0
0.205452 -0.00806172 0
0.11712 -0.00308535 0
0.111469 -0.00268037 0
0.106628 -0.00227946 0
0 0 0
0 0 0
0 0 0
0.205452 -0.00806172 0
0.198672 -0.00667729 0
0.193101 -0.00528774 0
0.106628 -0.00227946 0
0.102391 -0.00186569 0
0.0989579 -0.00145818 0
0 0 0
0 0 0
0 0 0
0.367634 -0.0152834 0
0.361664 -0.0112144 0
0.357054 -0.00724278 0
0.282371 -0.00988972 0
0.276906 -0.00720019 0
0.272774 -0.00456161 0
0.193101 -0.00528774 0
0.188588 -0.00389497 0
0.185257 -0.00249669 0
0.357054 -0.00724278 0
0.353687 -0.00350547 0
0.351562 0 0
0.272774 -0.00456161 0
0.269826 -0.00208077 0
0.268066 0 0
0.185257 -0.00249669 0
0.182949 -0.00118384 0
0.181641 0 0
0.193101 -0.00528774 0
0.188588 -0.00389497 0
0.185257 -0.00249669 0
0.0989579 -0.00145818 0
0.0961754 -0.00105579 0
0.0942352 -0.000638238 0
0 0 0
0 0 0
0 0 0
0.185257 -0.00249669 0
0.182949 -0.00118384 0
0.181641 0 0
0.0942352 -0.000638238 0
0.0929103 -0.000205836 0
0.0922852 0 0
0 0 0
0 0 0
0 0 0
1.81046 -0.355577 0
1.77115 -0.391468 0
1.72765 -0.421243 0
1.73559 -0.305263 0
1.70054 -0.338634 0
1.66189 -0.366592 0
1.65577 -0.262627 0
1.62614 -0.293361 0
1.59297 -0.319614 0
1.72765 -0.421243 0
1.68327 -0.443643 0
1.63633 -0.459508 0
1.66189 -0.366592 0
1.62228 -0.388711 0
1.58036 -0.405083 0
1.59297 -0.319614 0
1.55877 -0.341051 0
1.52226 -0.357568 0
1.65577 -0.262627 0
1.62614 -0.293361 0
1.59297 -0.319614 0
1.58163 -0.228659 0
1.55576 -0.255476 0
1.52677 -0.27871 0
1.50446 -0.195364 0
1.48094 -0.219549 0
1.45459 -0.240705 0
1.59297 -0.319614 0
1.55877 -0.341051 0
1.52226 -0.357568 0
1.52677 -0.27871 0
1.49652 -0.297965 0
1.46406 -0.313211 0
1.45459 -0.240705 0
1.4271 -0.258548 0
1.39759 -0.273005 0
1.63633 -0.459508 0
1.59215 -0.468699 0
1.54722 -0.471618 0
1.58036 -0.405083 0
1.54059 -0.415749 0
1.50001 -0.421326 0
1.52226 -0.357568 0
1.48719 -0.36929 0
1.45116 -0.376409 0
1.54722 -0.471618 0
1.50676 -0.469766 0
1.46687 -0.463186 0
1.50001 -0.421326 0
1.46292 -0.422303 0
1.42622 -0.419148 0
1.45116 -0.376409 0
1.41762 -0.379375 0
1.38419 -0.378492 0
1.52226 -0.357568 0
1.48719 -0.36929 0
1.45116 -0.376409 0
1.46406 -0.313211 0
1.43235 -0.324434 0
1.39952 -0.331833 0
1.39759 -0.273005 0
1.36853 -0.284068 0
1.33843 -0.291873 0
1.45116 -0.376409 0
1.41762 -0.379375 0
1.38419 -0.378492 0
1.39952 -0.331833 0
1.3684 -0.335737 0
1.33714 -0.336332 0
1.33843 -0.291873 0
1.3096 -0.296622 0
1.28056 -0.298464 0
1.50446 -0.195364 0
1.48094 -0.219549 0
1.45459 -0.240705 0
1.42513 -0.167386 0
1.40398 -0.189126 0
1.38022 -0.208284 0
1.34662 -0.140963 0
1.32741 -0.160483 0
1.30571 -0.177842 0
1.45459 -0.240705 0
1.4271 -0.258548 0
1.39759 -0.273005 0
1.38022 -0.208284 0
1.35534 -0.224598 0
1.32856 -0.238029 0
1.30571 -0.177842 0
1.2829 -0.192785 0
1.25825 -0.205274 0
1.34662 -0.140963 0
1.32741 -0.160483 0
1.30571 -0.177842 0
1.26726 -0.117615 0
1.24962 -0.134784 0
1.22964 -0.150138 0
1.18594 -0.0955344 0
1.16954 -0.11062 0
1.15088 -0.124204 0
1.30571 -0.177842 0
1.2829 -0.192785 0
1.25825 -0.205274 0
1.22964 -0.150138 0
1.2085 -0.163463 0
1.18558 -0.174727 0
1.15088 -0.124204 0
1.13109 -0.136098 0
1.10958 -0.146266 0
1.39759 -0.273005 0
1.36853 -0.284068 0
1.33843 -0.291873 0
1.32856 -0.238029 0
1.30198 -0.248541 0
1.27434 -0.256236 0
1.25825 -0.205274 0
1.23359 -0.215253 0
1.20784 -0.222802 0
1.33843 -0.291873 0
1.3096 -0.296622 0
1.28056 -0.298464 0
1.27434 -0.256236 0
1.24761 -0.261266 0
1.22057 -0.263731 0
1.20784 -0.222802 0
1.18269 -0.228016 0
1.15715 -0.23098 0
1.25825 -0.205274 0
1.23359 -0.215253 0
1.20784 -0.222802 0
1.18558 -0.174727 0
1.16247 -0.183879 0
1.13824 -0.19097 0
1.10958 -0.146266 0
1.08775 -0.154654 0
1.06482 -0.161298 0
1.20784 -0.222802 0
1.18269 -0.228016 0
1.15715 -0.23098 0
1.13824 -0.19097 0
1.11439 -0.196077 0
1.09007 -0.199248 0
1.06482 -0.161298 0
1.04209 -0.166245 0
1.01885 -0.16953 0
1.46687 -0.463186 0
1.43231 -0.453528 0
1.39949 -0.440161 0
1.42622 -0.419148 0
1.39404 -0.412544 0
1.36326 -0.403048 0
1.38419 -0.378492 0
1.35422 -0.374461 0
1.32529 -0.367557 0
1.39949 -0.440161 0
1.37115 -0.425244 0
1.34499 -0.408318 0
1.36326 -0.403048 0
1.33626 -0.391445 0
1.3112 -0.37783 0
1.32529 -0.367557 0
1.29933 -0.35841 0
1.27487 -0.347226 0
1.38419 -0.378492 0
1.35422 -0.374461 0
1.32529 -0.367557 0
1.33714 -0.336332 0
1.30859 -0.334125 0
1.28076 -0.329322 0
1.28056 -0.298464 0
1.25369 -0.297768 0
1.22742 -0.294748 0
1.32529 -0.367557 0
1.29933 -0.35841 0
1.27487 -0.347226 0
1.28076 -0.329322 0
1.2554 -0.32249 0
1.23131 -0.313754 0
1.22742 -0.294748 0
1.20322 -0.289808 0
1.18012 -0.283069 0
1.34499 -0.408318 0
1.32296 -0.390597 0
1.30364 -0.371541 0
1.3112 -0.37783 0
1.28983 -0.362841 0
1.27072 -0.346688 0
1.27487 -0.347226 0
1.25348 -0.334599 0
1.23399 -0.320683 0
1.30364 -0.371541 0
1.28717 -0.352587 0
1.27291 -0.333718 0
1.27072 -0.346688 0
1.254 -0.329833 0
1.2395 -0.312224 0
1.23399 -0.320683 0
1.21658 -0.305965 0
1.20112 -0.290759 0
1.27487 -0.347226 0
1.25348 -0.334599 0
1.23399 -0.320683 0
1.23131 -0.313754 0
1.21 -0.303624 0
1.19042 -0.29224 0
1.18012 -0.283069 0
1.15941 -0.274927 0
1.1402 -0.265522 0
1.23399 -0.320683 0
1.21658 -0.305965 0
1.20112 -0.290759 0
1.19042 -0.29224 0
1.1728 -0.279992 0
1.15699 -0.266921 0
1.1402 -0.265522 0
1.12264 -0.255116 0
1.10667 -0.243829 0
1.28056 -0.298464 0
1.25369 -0.297768 0
1.22742 -0.294748 0
1.22057 -0.263731 0
1.19523 -0.263937 0
1.1703 -0.262053 0
1.15715 -0.23098 0
1.13292 -0.231928 0
1.10895 -0.231004 0
1.22742 -0.294748 0
1.20322 -0.289808 0
1.18012 -0.283069 0
1.1703 -0.262053 0
1.14702 -0.258411 0
1.12461 -0.253093 0
1.10895 -0.231004 0
1.08634 -0.22847 0
1.06445 -0.224411 0
1.15715 -0.23098 0
1.13292 -0.231928 0
1.10895 -0.231004 0
1.09007 -0.199248 0
1.06677 -0.200677 0
1.04361 -0.200459 0
1.01885 -0.16953 0
0.996371 -0.171298 0
0.973938 -0.171631 0
1.10895 -0.231004 0
1.08634 -0.22847 0
1.06445 -0.224411 0
1.04361 -0.200459 0
1.02158 -0.198815 0
1.00014 -0.195802 0
0.973938 -0.171631 0
0.95242 -0.170698 0
0.931376 -0.168549 0
1.18012 -0.283069 0
1.15941 -0.274927 0
1.1402 -0.265522 0
1.12461 -0.253093 0
1.10421 -0.246451 0
1.08507 -0.238634 0
1.06445 -0.224411 0
1.04429 -0.219125 0
1.02525 -0.212739 0
1.1402 -0.265522 0
1.12264 -0.255116 0
1.10667 -0.243829 0
1.08507 -0.238634 0
1.06742 -0.2299 0
1.0512 -0.220285 0
1.02525 -0.212739 0
1.00759 -0.205448 0
0.991229 -0.197299 0
1.06445 -0.224411 0
1.04429 -0.219125 0
1.02525 -0.212739 0
1.00014 -0.195802 0
0.980173 -0.191665 0
0.961186 -0.186499 0
0.931376 -0.168549 0
0.91157 -0.165379 0
0.892622 -0.161282 0
1.02525 -0.212739 0
1.00759 -0.205448 0
0.991229 -0.197299 0
0.961186 -0.186499 0
0.943409 -0.180479 0
0.926794 -0.173662 0
0.892622 -0.161282 0
0.874765 -0.1564 0
0.857982 -0.150779 0
1.18594 -0.0955344 0
1.16954 -0.11062 0
1.15088 -0.124204 0
1.10315 -0.0762326 0
1.08784 -0.0892226 0
1.07037 -0.100974 0
1.01761 -0.0577206 0
1.00331 -0.068748 0
0.986857 -0.0787773 0
1.15088 -0.124204 0
1.13109 -0.136098 0
1.10958 -0.146266 0
1.07037 -0.100974 0
1.05175 -0.111319 0
1.03145 -0.120226 0
0.986857 -0.0787773 0
0.969252 -0.0876639 0
0.949965 -0.095376 0
1.01761 -0.0577206 0
1.00331 -0.068748 0
0.986857 -0.0787773 0
0.926492 -0.0413814 0
0.913427 -0.0503828 0
0.898193 -0.0586064 0
0.8241 -0.0265 0
0.812786 -0.0334658 0
0.799185 -0.0398725 0
0.986857 -0.0787773 0
0.969252 -0.0876639 0
0.949965 -0.095376 0
0.898193 -0.0586064 0
0.881734 -0.0659293 0
0.863556 -0.0723244 0
0.799185 -0.0398725 0
0.784266 -0.045622 0
0.767542 -0.0506811 0
1.10958 -0.146266 0
1.08775 -0.154654 0
1.06482 -0.161298 0
1.03145 -0.120226 0
1.01071 -0.127644 0
0.988854 -0.133599 0
0.949965 -0.095376 0
0.930149 -0.101867 0
0.909183 -0.107152 0
1.06482 -0.161298 0
1.04209 -0.166245 0
1.01885 -0.16953 0
0.988854 -0.133599 0
0.967043 -0.138126 0
0.944651 -0.141247 0
0.909183 -0.107152 0
0.88814 -0.111256 0
0.866468 -0.114192 0
0.949965 -0.095376 0
0.930149 -0.101867 0
0.909183 -0.107152 0
0.863556 -0.0723244 0
0.844734 -0.077751 0
0.824708 -0.0822143 0
0.767542 -0.0506811 0
0.750042 -0.0550176 0
0.731255 -0.0586253 0
0.909183 -0.107152 0
0.88814 -0.111256 0
0.866468 -0.114192 0
0.824708 -0.0822143 0
0.804479 -0.0857336 0
0.783553 -0.0883121 0
0.731255 -0.0586253 0
0.712132 -0.0615203 0
0.69223 -0.0636947 0
0.8241 -0.0265 0
0.812786 -0.0334658 0
0.799185 -0.0398725 0
0.700069 -0.0147082 0
0.691464 -0.0195233 0
0.680485 -0.0239834 0
0.536915 -0.00551988 0
0.531828 -0.00819209 0
0.524444 -0.0106908 0
0.799185 -0.0398725 0
0.784266 -0.045622 0
0.767542 -0.0506811 0
0.680485 -0.0239834 0
0.668045 -0.028017 0
0.653684 -0.0315894 0
0.524444 -0.0106908 0
0.515579 -0.012979 0
0.504824 -0.0150243 0
0.536915 -0.00551988 0
0.531828 -0.00819209 0
0.524444 -0.0106908 0
0.312028 -0.00141642 0
0.310324 -0.00224535 0
0.306871 -0.00301913 0
0 0 0
0 0 0
0 0 0
0.524444 -0.0106908 0
0.515579 -0.012979 0
0.504824 -0.0150243 0
0.306871 -0.00301913 0
0.302415 -0.00373552 0
0.296455 -0.00436582 0
0 0 0
0 0 0
0 0 0
0.767542 -0.0506811 0
0.750042 -0.0550176 0
0.731255 -0.0586253 0
0.653684 -0.0315894 0
0.638376 -0.0346787 0
0.62166 -0.0372687 0
0.504824 -0.0150243 0
0.493019 -0.0168223 0
0.479787 -0.0183461 0
0.731255 -0.0586253 0
0.712132 -0.0615203 0
0.69223 -0.0636947 0
0.62166 -0.0372687 0