# vtk DataFile Version 3.0
#This file was generated by the deal.II library on 2025/1/3 at 17:20:05
ASCII
DATASET UNSTRUCTURED_GRID

POINTS 34560 double
1.1 1.1 0
1.03125 1.09531 0
0.9625 1.09063 0
1.09375 1.03125 0
1.02539 1.02686 0
0.957031 1.02246 0
1.0875 0.9625 0
1.01953 0.958398 0
0.951563 0.954297 0
0.9625 1.09063 0
0.89375 1.08594 0
0.825 1.08125 0
0.957031 1.02246 0
0.888672 1.01807 0
0.820312 1.01367 0
0.951563 0.954297 0
0.883594 0.950195 0
0.815625 0.946094 0
1.0875 0.9625 0
1.01953 0.958398 0
0.951563 0.954297 0
1.08125 0.89375 0
1.01367 0.889941 0
0.946094 0.886133 0
1.075 0.825 0
1.00781 0.821484 0
0.940625 0.817969 0
0.951563 0.954297 0
0.883594 0.950195 0
0.815625 0.946094 0
0.946094 0.886133 0
0.878516 0.882324 0
0.810938 0.878516 0
0.940625 0.817969 0
0.873438 0.814453 0
0.80625 0.810937 0
0.825 1.08125 0
0.75625 1.07656 0
0.6875 1.07187 0
0.820312 1.01367 0
0.751953 1.00928 0
0.683594 1.00488 0
0.815625 0.946094 0
0.747656 0.941992 0
0.679688 0.937891 0
0.6875 1.07187 0
0.61875 1.06719 0
0.55 1.0625 0
0.683594 1.00488 0
0.615234 1.00049 0
0.546875 0.996094 0
0.679688 0.937891 0
0.611719 0.933789 0
0.54375 0.929688 0
0.815625 0.946094 0
0.747656 0.941992 0
0.679688 0.937891 0
0.810938 0.878516 0
0.743359 0.874707 0
0.675781 0.870898 0
0.80625 0.810937 0
0.739063 0.807422 0
0.671875 0.803906 0
0.679688 0.937891 0
0.611719 0.933789 0
0.54375 0.929688 0
0.675781 0.870898 0
0.608203 0.86709 0
0.540625 0.863281 0
0.671875 0.803906 0
0.604688 0.800391 0
0.5375 0.796875 0
1.075 0.825 0
1.00781 0.821484 0
0.940625 0.817969 0
1.06875 0.75625 0
1.00195 0.753027 0
0.935156 0.749805 0
1.0625 0.6875 0
0.996094 0.68457 0
0.929688 0.681641 0
0.940625 0.817969 0
0.873438 0.814453 0
0.80625 0.810937 0
0.935156 0.749805 0
0.868359 0.746582 0
0.801563 0.743359 0
0.929688 0.681641 0
0.863281 0.678711 0
0.796875 0.675781 0
1.0625 0.6875 0
0.996094 0.68457 0
0.929688 0.681641 0
1.05625 0.61875 0
0.990234 0.616113 0
0.924219 0.613477 0
1.05 0.55 0
0.984375 0.547656 0
0.91875 0.545313 0
0.929688 0.681641 0
0.863281 0.678711 0
0.796875 0.675781 0
0.924219 0.613477 0
0.858203 0.61084 0
0.792188 0.608203 0
0.91875 0.545313 0
0.853125 0.542969 0
0.7875 0.540625 0
0.80625 0.810937 0
0.739063 0.807422 0
0.671875 0.803906 0
0.801563 0.743359 0
0.734766 0.740137 0
0.667969 0.736914 0
0.796875 0.675781 0
0.730469 0.672852 0
0.664062 0.669922 0
0.671875 0.803906 0
0.604688 0.800391 0
0.5375 0.796875 0
0.667969 0.736914 0
0.601172 0.733691 0
0.534375 0.730469 0
0.664062 0.669922 0
0.597656 0.666992 0
0.53125 0.664062 0
0.796875 0.675781 0
0.730469 0.672852 0
0.664062 0.669922 0
0.792188 0.608203 0
0.726172 0.605566 0
0.660156 0.60293 0
0.7875 0.540625 0
0.721875 0.538281 0
0.65625 0.535937 0
0.664062 0.669922 0
0.597656 0.666992 0
0.53125 0.664062 0
0.660156 0.60293 0
0.594141 0.600293 0
0.528125 0.597656 0
0.65625 0.535937 0
0.590625 0.533594 0
0.525 0.53125 0
0.55 1.0625 0
0.48125 1.05781 0
0.4125 1.05313 0
0.546875 0.996094 0
0.478516 0.991699 0
0.410156 0.987305 0
0.54375 0.929688 0
0.475781 0.925586 0
0.407813 0.921484 0
0.4125 1.05313 0
0.34375 1.04844 0
0.275 1.04375 0
0.410156 0.987305 0
0.341797 0.98291 0
0.273438 0.978516 0
0.407813 0.921484 0
0.339844 0.917383 0
0.271875 0.913281 0
0.54375 0.929688 0
0.475781 0.925586 0
0.407813 0.921484 0
0.540625 0.863281 0
0.473047 0.859473 0
0.405469 0.855664 0
0.5375 0.796875 0
0.470313 0.793359 0
0.403125 0.789844 0
0.407813 0.921484 0
0.339844 0.917383 0
0.271875 0.913281 0
0.405469 0.855664 0
0.337891 0.851855 0
0.270313 0.848047 0
0.403125 0.789844 0
0.335938 0.786328 0
0.26875 0.782813 0
0.275 1.04375 0
0.20625 1.03906 0
0.1375 1.03437 0
0.273438 0.978516 0
0.205078 0.974121 0
0.136719 0.969727 0
0.271875 0.913281 0
0.203906 0.90918 0
0.135938 0.905078 0
0.1375 1.03437 0
0.06875 1.02969 0
0 1.025 0
0.136719 0.969727 0
0.0683594 0.965332 0
0 0.960937 0
0.135938 0.905078 0
0.0679688 0.900977 0
0 0.896875 0
0.271875 0.913281 0
0.203906 0.90918 0
0.135938 0.905078 0
0.270313 0.848047 0
0.202734 0.844238 0
0.135156 0.84043 0
0.26875 0.782813 0
0.201563 0.779297 0
0.134375 0.775781 0
0.135938 0.905078 0
0.0679688 0.900977 0
0 0.896875 0
0.135156 0.84043 0
0.0675781 0.836621 0
0 0.832812 0
0.134375 0.775781 0
0.0671875 0.772266 0
0 0.76875 0
0.5375 0.796875 0
0.470313 0.793359 0
0.403125 0.789844 0
0.534375 0.730469 0
0.467578 0.727246 0
0.400781 0.724023 0
0.53125 0.664062 0
0.464844 0.661133 0
0.398438 0.658203 0
0.403125 0.789844 0
0.335938 0.786328 0
0.26875 0.782813 0
0.400781 0.724023 0
0.333984 0.720801 0
0.267188 0.717578 0
0.398438 0.658203 0
0.332031 0.655273 0
0.265625 0.652344 0
0.53125 0.664062 0
0.464844 0.661133 0
0.398438 0.658203 0
0.528125 0.597656 0
0.462109 0.59502 0
0.396094 0.592383 0
0.525 0.53125 0
0.459375 0.528906 0
0.39375 0.526563 0
0.398438 0.658203 0
0.332031 0.655273 0
0.265625 0.652344 0
0.396094 0.592383 0
0.330078 0.589746 0
0.264062 0.587109 0
0.39375 0.526563 0
0.328125 0.524219 0
0.2625 0.521875 0
0.26875 0.782813 0
0.201563 0.779297 0
0.134375 0.775781 0
0.267188 0.717578 0
0.200391 0.714355 0
0.133594 0.711133 0
0.265625 0.652344 0
0.199219 0.649414 0
0.132812 0.646484 0
0.134375 0.775781 0
0.0671875 0.772266 0
0 0.76875 0
0.133594 0.711133 0
0.0667969 0.70791 0
0 0.704687 0
0.132812 0.646484 0
0.0664062 0.643555 0
0 0.640625 0
0.265625 0.652344 0
0.199219 0.649414 0
0.132812 0.646484 0
0.264062 0.587109 0
0.198047 0.584473 0
0.132031 0.581836 0
0.2625 0.521875 0
0.196875 0.519531 0
0.13125 0.517187 0
0.132812 0.646484 0
0.0664062 0.643555 0
0 0.640625 0
0.132031 0.581836 0
0.0660156 0.579199 0
0 0.576562 0
0.13125 0.517187 0
0.065625 0.514844 0
0 0.5125 0
1.05 0.55 0
0.984375 0.547656 0
0.91875 0.545313 0
1.04375 0.48125 0
0.978516 0.479199 0
0.913281 0.477148 0
1.0375 0.4125 0
0.972656 0.410742 0
0.907813 0.408984 0
0.91875 0.545313 0
0.853125 0.542969 0
0.7875 0.540625 0
0.913281 0.477148 0
0.848047 0.475098 0
0.782813 0.473047 0
0.907813 0.408984 0
0.842969 0.407227 0
0.778125 0.405469 0
1.0375 0.4125 0
0.972656 0.410742 0
0.907813 0.408984 0
1.03125 0.34375 0
0.966797 0.342285 0
0.902344 0.34082 0
1.025 0.275 0
0.960937 0.273828 0
0.896875 0.272656 0
0.907813 0.408984 0
0.842969 0.407227 0
0.778125 0.405469 0
0.902344 0.34082 0
0.837891 0.339355 0
0.773438 0.337891 0
0.896875 0.272656 0
0.832812 0.271484 0
0.76875 0.270313 0
0.7875 0.540625 0
0.721875 0.538281 0
0.65625 0.535937 0
0.782813 0.473047 0
0.717578 0.470996 0
0.652344 0.468945 0
0.778125 0.405469 0
0.713281 0.403711 0
0.648438 0.401953 0
0.65625 0.535937 0
0.590625 0.533594 0
0.525 0.53125 0
0.652344 0.468945 0
0.587109 0.466895 0
0.521875 0.464844 0
0.648438 0.401953 0
0.583594 0.400195 0
0.51875 0.398438 0
0.778125 0.405469 0
0.713281 0.403711 0
0.648438 0.401953 0
0.773438 0.337891 0
0.708984 0.336426 0
0.644531 0.334961 0
0.76875 0.270313 0
0.704687 0.269141 0
0.640625 0.267969 0
0.648438 0.401953 0
0.583594 0.400195 0
0.51875 0.398438 0
0.644531 0.334961 0
0.580078 0.333496 0
0.515625 0.332031 0
0.640625 0.267969 0
0.576562 0.266797 0
0.5125 0.265625 0
1.025 0.275 0
0.960937 0.273828 0
0.896875 0.272656 0
1.01875 0.20625 0
0.955078 0.205371 0
0.891406 0.204492 0
1.0125 0.1375 0
0.949219 0.136914 0
0.885937 0.136328 0
0.896875 0.272656 0
0.832812 0.271484 0
0.76875 0.270313 0
0.891406 0.204492 0
0.827734 0.203613 0
0.764062 0.202734 0
0.885937 0.136328 0
0.822656 0.135742 0
0.759375 0.135156 0
1.0125 0.1375 0
0.949219 0.136914 0
0.885937 0.136328 0
1.00625 0.06875 0
0.943359 0.068457 0
0.880469 0.0681641 0
1 0 0
0.9375 0 0
0.875 0 0
0.885937 0.136328 0
0.822656 0.135742 0
0.759375 0.135156 0
0.880469 0.0681641 0
0.817578 0.0678711 0
0.754687 0.0675781 0
0.875 0 0
0.8125 0 0
0.75 0 0
0.76875 0.270313 0
0.704687 0.269141 0
0.640625 0.267969 0
0.764062 0.202734 0
0.700391 0.201855 0
0.636719 0.200977 0
0.759375 0.135156 0
0.696094 0.13457 0
0.632812 0.133984 0
0.640625 0.267969 0
0.576562 0.266797 0
0.5125 0.265625 0
0.636719 0.200977 0
0.573047 0.200098 0
0.509375 0.199219 0
0.632812 0.133984 0
0.569531 0.133398 0
0.50625 0.132812 0
0.759375 0.135156 0
0.696094 0.13457 0
0.632812 0.133984 0
0.754687 0.0675781 0
0.691797 0.0672852 0
0.628906 0.0669922 0
0.75 0 0
0.6875 0 0
0.625 0 0
0.632812 0.133984 0
0.569531 0.133398 0
0.50625 0.132812 0
0.628906 0.0669922 0
0.566016 0.0666992 0
0.503125 0.0664062 0
0.625 0 0
0.5625 0 0
0.5 0 0
0.525 0.53125 0
0.459375 0.528906 0
0.39375 0.526563 0
0.521875 0.464844 0
0.456641 0.462793 0
0.391406 0.460742 0
0.51875 0.398438 0
0.453906 0.39668 0
0.389063 0.394922 0
0.39375 0.526563 0
0.328125 0.524219 0
0.2625 0.521875 0
0.391406 0.460742 0
0.326172 0.458691 0
0.260938 0.456641 0
0.389063 0.394922 0
0.324219 0.393164 0
0.259375 0.391406 0
0.51875 0.398438 0
0.453906 0.39668 0
0.389063 0.394922 0
0.515625 0.332031 0
0.451172 0.330566 0
0.386719 0.329102 0
0.5125 0.265625 0
0.448437 0.264453 0
0.384375 0.263281 0
0.389063 0.394922 0
0.324219 0.393164 0
0.259375 0.391406 0
0.386719 0.329102 0
0.322266 0.327637 0
0.257812 0.326172 0
0.384375 0.263281 0
0.320312 0.262109 0
0.25625 0.260937 0
0.2625 0.521875 0
0.196875 0.519531 0
0.13125 0.517187 0
0.260938 0.456641 0
0.195703 0.45459 0
0.130469 0.452539 0
0.259375 0.391406 0
0.194531 0.389648 0
0.129688 0.387891 0
0.13125 0.517187 0
0.065625 0.514844 0
0 0.5125 0
0.130469 0.452539 0
0.0652344 0.450488 0
0 0.448437 0
0.129688 0.387891 0
0.0648438 0.386133 0
0 0.384375 0
0.259375 0.391406 0
0.194531 0.389648 0
0.129688 0.387891 0
0.257812 0.326172 0
0.193359 0.324707 0
0.128906 0.323242 0
0.25625 0.260937 0
0.192187 0.259766 0
0.128125 0.258594 0
0.129688 0.387891 0
0.0648438 0.386133 0
0 0.384375 0
0.128906 0.323242 0
0.0644531 0.321777 0
0 0.320312 0
0.128125 0.258594 0
0.0640625 0.257422 0
0 0.25625 0
0.5125 0.265625 0
0.448437 0.264453 0
0.384375 0.263281 0
0.509375 0.199219 0
0.445703 0.19834 0
0.382031 0.197461 0
0.50625 0.132812 0
0.442969 0.132227 0
0.379688 0.131641 0
0.384375 0.263281 0
0.320312 0.262109 0
0.25625 0.260937 0
0.382031 0.197461 0
0.318359 0.196582 0
0.254687 0.195703 0
[...]
POINT_DATA 34560
VECTORS v double
1.27294 -0.334126 0
1.25413 -0.30633 0
1.23746 -0.280377 0
1.23952 -0.312611 0
1.21908 -0.288368 0
1.20098 -0.264814 0
1.20113 -0.291123 0
1.17969 -0.269507 0
1.16022 -0.248224 0
1.23746 -0.280377 0
1.22272 -0.255027 0
1.20991 -0.231002 0
1.20098 -0.264814 0
1.18455 -0.241807 0
1.17036 -0.219653 0
1.16022 -0.248224 0
1.14262 -0.227343 0
1.12703 -0.206963 0
1.20113 -0.291123 0
1.17969 -0.269507 0
1.16022 -0.248224 0
1.15699 -0.267266 0
1.13458 -0.248347 0
1.11413 -0.229553 0
1.10666 -0.244152 0
1.08382 -0.227655 0
1.06277 -0.211068 0
1.16022 -0.248224 0
1.14262 -0.227343 0
1.12703 -0.206963 0
1.11413 -0.229553 0
1.0955 -0.210911 0
1.07886 -0.192575 0
1.06277 -0.211068 0
1.04353 -0.194463 0
1.02618 -0.177981 0
1.20991 -0.231002 0
1.19814 -0.207762 0
1.18805 -0.185531 0
1.17036 -0.219653 0
1.15707 -0.19805 0
1.14577 -0.17726 0
1.12703 -0.206963 0
1.11258 -0.187032 0
1.10003 -0.167661 0
1.18805 -0.185531 0
1.17844 -0.164075 0
1.17021 -0.143418 0
1.14577 -0.17726 0
1.1349 -0.157006 0
1.12568 -0.137455 0
1.10003 -0.167661 0
1.08813 -0.148732 0
1.07789 -0.130342 0
1.12703 -0.206963 0
1.11258 -0.187032 0
1.10003 -0.167661 0
1.07886 -0.192575 0
1.06346 -0.174472 0
1.04992 -0.156758 0
1.02618 -0.177981 0
1.01012 -0.161597 0
0.99587 -0.145453 0
1.10003 -0.167661 0
1.08813 -0.148732 0
1.07789 -0.130342 0
1.04992 -0.156758 0
1.03722 -0.139328 0
1.02617 -0.122296 0
0.99587 -0.145453 0
0.98257 -0.129481 0
0.970915 -0.113789 0
1.10666 -0.244152 0
1.08382 -0.227655 0
1.06277 -0.211068 0
1.05118 -0.220587 0
1.02813 -0.206334 0
1.00677 -0.191848 0
0.991214 -0.197578 0
0.968142 -0.185309 0
0.946608 -0.172721 0
1.06277 -0.211068 0
1.04353 -0.194463 0
1.02618 -0.177981 0
1.00677 -0.191848 0
0.98712 -0.177204 0
0.969259 -0.162559 0
0.946608 -0.172721 0
0.926707 -0.1599 0
0.908487 -0.146986 0
0.991214 -0.197578 0
0.968142 -0.185309 0
0.946608 -0.172721 0
0.926778 -0.173917 0
0.903752 -0.163529 0
0.882178 -0.15279 0
0.857966 -0.151008 0
0.835167 -0.142319 0
0.813705 -0.133263 0
0.946608 -0.172721 0
0.926707 -0.1599 0
0.908487 -0.146986 0
0.882178 -0.15279 0
0.862141 -0.141772 0
0.84371 -0.130599 0
0.813705 -0.133263 0
0.793687 -0.123903 0
0.775184 -0.114355 0
1.02618 -0.177981 0
1.01012 -0.161597 0
0.99587 -0.145453 0
0.969259 -0.162559 0
0.95272 -0.147901 0
0.937926 -0.133366 0
0.908487 -0.146986 0
0.891599 -0.133983 0
0.876394 -0.121014 0
0.99587 -0.145453 0
0.98257 -0.129481 0
0.970915 -0.113789 0
0.937926 -0.133366 0
0.924176 -0.118909 0
0.912049 -0.104633 0
0.876394 -0.121014 0
0.862305 -0.108053 0
0.849816 -0.0951923 0
0.908487 -0.146986 0
0.891599 -0.133983 0
0.876394 -0.121014 0
0.84371 -0.130599 0
0.826595 -0.119277 0
0.811114 -0.107921 0
0.775184 -0.114355 0
0.757971 -0.104626 0
0.74233 -0.0948195 0
0.876394 -0.121014 0
0.862305 -0.108053 0
0.849816 -0.0951923 0
0.811114 -0.107921 0
0.796794 -0.0965095 0
0.784055 -0.0851319 0
0.74233 -0.0948195 0
0.727879 -0.0849197 0
0.714983 -0.075006 0
1.17021 -0.143418 0
1.16229 -0.123453 0
1.1555 -0.104153 0
1.12568 -0.137455 0
1.11677 -0.118424 0
1.10924 -0.100007 0
1.07789 -0.130342 0
1.06817 -0.112391 0
1.05987 -0.0949528 0
1.1555 -0.104153 0
1.14887 -0.0854764 0
1.14316 -0.0673635 0
1.10924 -0.100007 0
1.10191 -0.0821036 0
1.0957 -0.0647329 0
1.05987 -0.0949528 0
1.05195 -0.0779675 0
1.04523 -0.0614577 0
1.07789 -0.130342 0
1.06817 -0.112391 0
1.05987 -0.0949528 0
1.02617 -0.122296 0
1.01581 -0.105586 0
1.0069 -0.0892889 0
0.970915 -0.113789 0
0.960078 -0.0983354 0
0.950701 -0.0832051 0
1.05987 -0.0949528 0
1.05195 -0.0779675 0
1.04523 -0.0614577 0
1.0069 -0.0892889 0
0.998559 -0.0733665 0
0.991456 -0.057849 0
0.950701 -0.0832051 0
0.942028 -0.0683862 0
0.934632 -0.0539147 0
1.14316 -0.0673635 0
1.13773 -0.0498024 0
1.13307 -0.0327277 0
1.0957 -0.0647329 0
1.08984 -0.0478623 0
1.08492 -0.0314667 0
1.04523 -0.0614577 0
1.03901 -0.0454114 0
1.03382 -0.029823 0
1.13307 -0.0327277 0
1.1287 -0.0161439 0
1.125 0 0
1.08492 -0.0314667 0
1.08038 -0.0155391 0
1.07666 0 0
1.03382 -0.029823 0
1.02915 -0.0146975 0
1.02539 0 0
1.04523 -0.0614577 0
1.03901 -0.0454114 0
1.03382 -0.029823 0
0.991456 -0.057849 0
0.984994 -0.0427468 0
0.979626 -0.0280727 0
0.934632 -0.0539147 0
0.927991 -0.0398248 0
0.922489 -0.0261325 0
1.03382 -0.029823 0
1.02915 -0.0146975 0
1.02539 0 0
0.979626 -0.0280727 0
0.974915 -0.0138417 0
0.971191 0 0
0.922489 -0.0261325 0
0.917756 -0.0128694 0
0.914062 0 0
0.970915 -0.113789 0
0.960078 -0.0983354 0
0.950701 -0.0832051 0
0.912049 -0.104633 0
0.900846 -0.0905134 0
0.891112 -0.0766349 0
0.849816 -0.0951923 0
0.838339 -0.0824234 0
0.828337 -0.0698258 0
0.950701 -0.0832051 0
0.942028 -0.0683862 0
0.934632 -0.0539147 0
0.891112 -0.0766349 0
0.882202 -0.0630039 0
0.8746 -0.0496648 0
0.828337 -0.0698258 0
0.819264 -0.0574218 0
0.811525 -0.0452587 0
0.849816 -0.0951923 0
0.838339 -0.0824234 0
0.828337 -0.0698258 0
0.784055 -0.0851319 0
0.772398 -0.0737834 0
0.762224 -0.0625415 0
0.714983 -0.075006 0
0.703224 -0.065078 0
0.69295 -0.0552044 0
0.828337 -0.0698258 0
0.819264 -0.0574218 0
0.811525 -0.0452587 0
0.762224 -0.0625415 0
0.753064 -0.0514343 0
0.745266 -0.0405171 0
0.69295 -0.0552044 0
0.683766 -0.0454192 0
0.675966 -0.0357775 0
0.934632 -0.0539147 0
0.927991 -0.0398248 0
0.922489 -0.0261325 0
0.8746 -0.0496648 0
0.867851 -0.0366658 0
0.862282 -0.0240339 0
0.811525 -0.0452587 0
0.804724 -0.0334003 0
0.799134 -0.0218795 0
0.922489 -0.0261325 0
0.917756 -0.0128694 0
0.914062 0 0
0.862282 -0.0240339 0
0.857595 -0.0118173 0
0.854004 0 0
0.799134 -0.0218795 0
0.794511 -0.0107576 0
0.791016 0 0
0.811525 -0.0452587 0
0.804724 -0.0334003 0
0.799134 -0.0218795 0
0.745266 -0.0405171 0
0.738475 -0.0298628 0
0.732927 -0.0195165 0
0.675966 -0.0357775 0
0.669236 -0.0263613 0
0.663775 -0.0172198 0
0.799134 -0.0218795 0
0.794511 -0.0107576 0
0.791016 0 0
0.732927 -0.0195165 0
0.728426 -0.00955529 0
0.725098 0 0
0.663775 -0.0172198 0
0.659418 -0.00844372 0
0.65625 0 0
0.857966 -0.151008 0
0.835167 -0.142319 0
0.813705 -0.133263 0
0.78524 -0.127875 0
0.762705 -0.120737 0
0.741427 -0.113253 0
0.708374 -0.105353 0
0.686228 -0.0996483 0
0.665244 -0.093631 0
0.813705 -0.133263 0
0.793687 -0.123903 0
0.775184 -0.114355 0
0.741427 -0.113253 0
0.721489 -0.105474 0
0.702995 -0.0975025 0
0.665244 -0.093631 0
0.645508 -0.0873404 0
0.62714 -0.0808694 0
0.708374 -0.105353 0
0.686228 -0.0996483 0
0.665244 -0.093631 0
0.627145 -0.0827392 0
0.605484 -0.0783419 0
0.584922 -0.0736895 0
0.539745 -0.0609278 0
0.518905 -0.0577507 0
0.499084 -0.0543793 0
0.665244 -0.093631 0
0.645508 -0.0873404 0
0.62714 -0.0808694 0
0.584922 -0.0736895 0
0.565509 -0.0688058 0
0.5474 -0.0637719 0
0.499084 -0.0543793 0
0.480317 -0.050824 0
0.462778 -0.0471567 0
0.775184 -0.114355 0
0.757971 -0.104626 0
0.74233 -0.0948195 0
0.702995 -0.0975025 0
0.685753 -0.0893432 0
0.670034 -0.0810861 0
0.62714 -0.0808694 0
0.609979 -0.074217 0
0.594286 -0.0674629 0
0.74233 -0.0948195 0
0.727879 -0.0849197 0
0.714983 -0.075006 0
0.670034 -0.0810861 0
0.655517 -0.0727154 0
0.642534 -0.0643008 0
0.594286 -0.0674629 0
0.579793 -0.0605908 0
0.566808 -0.0536598 0
0.62714 -0.0808694 0
0.609979 -0.074217 0
0.594286 -0.0674629 0
0.5474 -0.0637719 0
0.530443 -0.0585811 0
0.514901 -0.053302 0
0.462778 -0.0471567 0
0.446325 -0.043364 0
0.431217 -0.0395056 0
0.594286 -0.0674629 0
0.579793 -0.0605908 0
0.566808 -0.0536598 0
0.514901 -0.053302 0
0.500541 -0.0479164 0
0.487656 -0.0424735 0
0.431217 -0.0395056 0
0.417249 -0.0355612 0
0.4047 -0.0315727 0
0.539745 -0.0609278 0
0.518905 -0.0577507 0
0.499084 -0.0543793 0
0.443134 -0.0398199 0
0.423679 -0.0377247 0
0.405187 -0.0355072 0
0.329244 -0.0207078 0
0.312684 -0.0196266 0
0.29696 -0.0184886 0
0.499084 -0.0543793 0
0.480317 -0.050824 0
0.462778 -0.0471567 0
0.405187 -0.0355072 0
0.38764 -0.0331642 0
0.371248 -0.0307558 0
0.29696 -0.0184886 0
0.282038 -0.0172744 0
0.268123 -0.0160333 0
0.329244 -0.0207078 0
0.312684 -0.0196266 0
0.29696 -0.0184886 0
0.185586 -0.00612898 0
0.174824 -0.00578075 0
0.16471 -0.0054311 0
0 0 0
0 0 0
0 0 0
0.29696 -0.0184886 0
0.282038 -0.0172744 0
0.268123 -0.0160333 0
0.16471 -0.0054311 0
0.155082 -0.00504822 0
0.1462 -0.00467326 0
0 0 0
0 0 0
0 0 0
0.462778 -0.0471567 0
0.446325 -0.043364 0
0.431217 -0.0395056 0
0.371248 -0.0307558 0
0.355851 -0.028263 0
0.341717 -0.0257349 0
0.268123 -0.0160333 0
0.25506 -0.014741 0
0.24309 -0.0134378 0
0.431217 -0.0395056 0
0.417249 -0.0355612 0
0.4047 -0.0315727 0
0.341717 -0.0257349 0
0.328641 -0.0231503 0
0.3169 -0.0205444 0
0.24309 -0.0134378 0
0.232027 -0.0121018 0
0.22211 -0.0107627 0
0.268123 -0.0160333 0
0.25506 -0.014741 0
0.24309 -0.0134378 0
0.1462 -0.00467326 0
0.13784 -0.00427283 0
0.130267 -0.00388251 0
0 0 0
0 0 0
0 0 0
0.24309 -0.0134378 0
0.232027 -0.0121018 0
0.22211 -0.0107627 0
0.130267 -0.00388251 0
0.123245 -0.00347463 0
0.117026 -0.0030778 0
0 0 0
0 0 0
0 0 0
0.714983 -0.075006 0
0.703224 -0.065078 0
0.69295 -0.0552044 0
0.642534 -0.0643008 0
0.630731 -0.0558391 0
0.62042 -0.0473899 0
0.566808 -0.0536598 0
0.555028 -0.0466636 0
0.544744 -0.0396518 0
0.69295 -0.0552044 0
0.683766 -0.0454192 0
0.675966 -0.0357775 0
0.62042 -0.0473899 0
0.611262 -0.0389833 0
0.603516 -0.0306753 0
0.544744 -0.0396518 0
0.535665 -0.032648 0
0.528024 -0.0257021 0
0.566808 -0.0536598 0
0.555028 -0.0466636 0
0.544744 -0.0396518 0
0.487656 -0.0424735 0
0.475987 -0.0369623 0
0.465806 -0.0314212 0
0.4047 -0.0315727 0
0.393346 -0.027525 0
0.383446 -0.0234459 0
0.544744 -0.0396518 0
0.535665 -0.032648 0
0.528024 -0.0257021 0
0.465806 -0.0314212 0
0.456869 -0.0258632 0
0.449393 -0.020328 0
0.383446 -0.0234459 0
0.374795 -0.019336 0
0.367602 -0.015225 0
0.675966 -0.0357775 0
0.669236 -0.0263613 0
0.663775 -0.0172198 0
0.603516 -0.0306753 0
0.596896 -0.0225488 0
0.591574 -0.0146646 0
0.528024 -0.0257021 0
0.521559 -0.0188946 0
0.516419 -0.0122878 0
0.663775 -0.0172198 0
0.659418 -0.00844372 0
0.65625 0 0
0.591574 -0.0146646 0
0.587412 -0.00712631 0
0.584473 0 0
0.516419 -0.0122878 0
0.512477 -0.00599881 0
0.509766 0 0
0.528024 -0.0257021 0
0.521559 -0.0188946 0
0.516419 -0.0122878 0
0.449393 -0.020328 0
0.443133 -0.0148838 0
0.438224 -0.00960205 0
0.367602 -0.015225 0
0.361645 -0.0111622 0
0.357044 -0.00720261 0
0.516419 -0.0122878 0
0.512477 -0.00599881 0
0.509766 0 0
0.438224 -0.00960205 0
0.43455 -0.00460193 0
0.432129 0 0
0.357044 -0.00720261 0
0.353684 -0.00348293 0
0.351562 0 0
0.4047 -0.0315727 0
0.393346 -0.027525 0
0.383446 -0.0234459 0
0.3169 -0.0205444 0
0.30628 -0.0179005 0
0.297037 -0.0152368 0
0.22211 -0.0107627 0
0.213152 -0.00940332 0
0.205374 -0.00803657 0
0.383446 -0.0234459 0
0.374795 -0.019336 0
0.367602 -0.015225 0
0.297037 -0.0152368 0
0.288984 -0.0125459 0
0.282332 -0.00984654 0
0.205374 -0.00803657 0
0.198611 -0.00665103 0
0.193057 -0.00526188 0
0.22211 -0.0107627 0
0.213152 -0.00940332 0
0.205374 -0.00803657 0
0.117026 -0.0030778 0
0.111389 -0.00267198 0
0.106561 -0.00227048 0
0 0 0
0 0 0
0 0 0
0.205374 -0.00803657 0
0.198611 -0.00665103 0
0.193057 -0.00526188 0
0.106561 -0.00227048 0
0.10234 -0.00185663 0
0.0989209 -0.00144946 0
0 0 0
0 0 0
0 0 0
0.367602 -0.015225 0
0.361645 -0.0111622 0
0.357044 -0.00720261 0
0.282332 -0.00984654 0
0.276882 -0.00716155 0
0.272762 -0.00453169 0
0.193057 -0.00526188 0
0.18856 -0.00387164 0
0.185243 -0.00247832 0
0.357044 -0.00720261 0
0.353684 -0.00348293 0
0.351562 0 0
0.272762 -0.00453169 0
0.269824 -0.00206396 0
0.268066 0 0
0.185243 -0.00247832 0
0.182945 -0.00117313 0
0.181641 0 0
0.193057 -0.00526188 0
0.18856 -0.00387164 0
0.185243 -0.00247832 0
0.0989209 -0.00144946 0
0.096153 -0.00104804 0
0.0942236 -0.000632286 0
0 0 0
0 0 0
0 0 0
0.185243 -0.00247832 0
0.182945 -0.00117313 0
0.181641 0 0
0.0942236 -0.000632286 0
0.0929076 -0.000202814 0
0.0922852 0 0
0 0 0
0 0 0
0 0 0
1.81097 -0.356972 0
1.77158 -0.39279 0
1.72801 -0.422486 0
1.7362 -0.306564 0
1.70105 -0.339875 0
1.66233 -0.367769 0
1.65644 -0.263818 0
1.62671 -0.294507 0
1.59345 -0.32071 0
1.72801 -0.422486 0
1.68357 -0.444814 0
1.63659 -0.460608 0
1.66233 -0.367769 0
1.62265 -0.389825 0
1.58068 -0.406135 0
1.59345 -0.32071 0
1.55918 -0.342095 0
1.52261 -0.358559 0
1.65644 -0.263818 0
1.62671 -0.294507 0
1.59345 -0.32071 0
1.58234 -0.229741 0
1.55637 -0.256527 0
1.5273 -0.279724 0
1.50522 -0.196342 0
1.4816 -0.220505 0
1.45517 -0.241633 0
1.59345 -0.32071 0
1.55918 -0.342095 0
1.52261 -0.358559 0
1.5273 -0.279724 0
1.49697 -0.298939 0
1.46445 -0.314141 0
1.45517 -0.241633 0
1.42759 -0.259444 0
1.39802 -0.273865 0
1.63659 -0.460608 0
1.59237 -0.469735 0
1.54742 -0.472593 0
1.58068 -0.406135 0
1.54086 -0.416742 0
1.50024 -0.422261 0
1.52261 -0.358559 0
1.48749 -0.370228 0
1.45141 -0.377295 0
1.54742 -0.472593 0
1.50693 -0.470683 0
1.46702 -0.464048 0
1.50024 -0.422261 0
1.46312 -0.423184 0
1.42639 -0.419974 0
1.45141 -0.377295 0
1.41783 -0.380211 0
1.38436 -0.379278 0
1.52261 -0.358559 0
1.48749 -0.370228 0
1.45141 -0.377295 0
1.46445 -0.314141 0
1.43268 -0.32532 0
1.39979 -0.332674 0
1.39802 -0.273865 0
1.36889 -0.284891 0
1.33874 -0.292656 0
1.45141 -0.377295 0
1.41783 -0.380211 0
1.38436 -0.379278 0
1.39979 -0.332674 0
1.36863 -0.336532 0
1.33734 -0.337081 0
1.33874 -0.292656 0
1.30985 -0.297364 0
1.28077 -0.299164 0
1.50522 -0.196342 0
1.4816 -0.220505 0
1.45517 -0.241633 0
1.42592 -0.168254 0
1.40467 -0.189982 0
1.38082 -0.209122 0
1.34744 -0.141728 0
1.32813 -0.161244 0
1.30635 -0.178591 0
1.45517 -0.241633 0
1.42759 -0.259444 0
1.39802 -0.273865 0
1.38082 -0.209122 0
1.35586 -0.225413 0
1.32901 -0.238815 0
1.30635 -0.178591 0
1.28345 -0.193518 0
1.25873 -0.205986 0
1.34744 -0.141728 0
1.32813 -0.161244 0
1.30635 -0.178591 0
1.26811 -0.118277 0
1.25037 -0.135447 0
1.2303 -0.150796 0
1.18682 -0.0960983 0
1.17033 -0.111189 0
1.15158 -0.124773 0
1.30635 -0.178591 0
1.28345 -0.193518 0
1.25873 -0.205986 0
1.2303 -0.150796 0
1.20908 -0.16411 0
1.18609 -0.175359 0
1.15158 -0.124773 0
1.13171 -0.136661 0
1.11012 -0.146819 0
1.39802 -0.273865 0
1.36889 -0.284891 0
1.33874 -0.292656 0
1.32901 -0.238815 0
1.30237 -0.249297 0
1.27467 -0.256959 0
1.25873 -0.205986 0
1.23399 -0.21594 0
1.20818 -0.223461 0
1.33874 -0.292656 0
1.30985 -0.297364 0
1.28077 -0.299164 0
1.27467 -0.256959 0
1.24788 -0.261953 0
1.22079 -0.264381 0
1.20818 -0.223461 0
1.18298 -0.228645 0
1.15739 -0.231577 0
1.25873 -0.205986 0
1.23399 -0.21594 0
1.20818 -0.223461 0
1.18609 -0.175359 0
1.1629 -0.184493 0
1.13861 -0.191562 0
1.11012 -0.146819 0
1.08822 -0.155193 0
1.06522 -0.16182 0
1.20818 -0.223461 0
1.18298 -0.228645 0
1.15739 -0.231577 0
1.13861 -0.191562 0
1.1147 -0.196644 0
1.09033 -0.199787 0
1.06522 -0.16182 0
1.04243 -0.166747 0
1.01913 -0.170009 0
1.46702 -0.464048 0
1.43244 -0.454337 0
1.3996 -0.440916 0
1.42639 -0.419974 0
1.39418 -0.413319 0
1.36338 -0.40377 0
1.38436 -0.379278 0
1.35436 -0.375198 0
1.32541 -0.368244 0
1.3996 -0.440916 0
1.37124 -0.425945 0
1.34507 -0.408965 0
1.36338 -0.40377 0
1.33636 -0.392113 0
1.31128 -0.378445 0
1.32541 -0.368244 0
1.29942 -0.359047 0
1.27494 -0.34781 0
1.38436 -0.379278 0
1.35436 -0.375198 0
1.32541 -0.368244 0
1.33734 -0.337081 0
1.30875 -0.334827 0
1.28088 -0.329977 0
1.28077 -0.299164 0
1.25386 -0.298426 0
1.22756 -0.295361 0
1.32541 -0.368244 0
1.29942 -0.359047 0
1.27494 -0.34781 0
1.28088 -0.329977 0
1.25549 -0.323096 0
1.23138 -0.314311 0
1.22756 -0.295361 0
1.20332 -0.290376 0
1.18019 -0.283591 0
1.34507 -0.408965 0
1.32302 -0.391187 0
1.30369 -0.372073 0
1.31128 -0.378445 0
1.28988 -0.363401 0
1.27076 -0.347191 0
1.27494 -0.34781 0
1.25353 -0.335131 0
1.23402 -0.32116 0
1.30369 -0.372073 0
1.2872 -0.353058 0
1.27294 -0.334126 0
1.27076 -0.347191 0
1.25403 -0.330279 0
1.23952 -0.312611 0
1.23402 -0.32116 0
1.21659 -0.306387 0
1.20113 -0.291123 0
1.27494 -0.34781 0
1.25353 -0.335131 0
1.23402 -0.32116 0
1.23138 -0.314311 0
1.21005 -0.30413 0
1.19045 -0.292693 0
1.18019 -0.283591 0
1.15945 -0.275401 0
1.14022 -0.265946 0
1.23402 -0.32116 0
1.21659 -0.306387 0
1.20113 -0.291123 0
1.19045 -0.292693 0
1.17281 -0.280391 0
1.15699 -0.267266 0
1.14022 -0.265946 0
1.12265 -0.255491 0
1.10666 -0.244152 0
1.28077 -0.299164 0
1.25386 -0.298426 0
1.22756 -0.295361 0
1.22079 -0.264381 0
1.19541 -0.264549 0
1.17043 -0.262624 0
1.15739 -0.231577 0
1.13311 -0.232491 0
1.1091 -0.23153 0
1.22756 -0.295361 0
1.20332 -0.290376 0
1.18019 -0.283591 0
1.17043 -0.262624 0
1.14712 -0.258941 0
1.12469 -0.25358 0
1.1091 -0.23153 0
1.08645 -0.228959 0
1.06453 -0.224861 0
1.15739 -0.231577 0
1.13311 -0.232491 0
1.1091 -0.23153 0
1.09033 -0.199787 0
1.06698 -0.201187 0
1.04377 -0.200937 0
1.01913 -0.170009 0
0.996595 -0.171753 0
0.974115 -0.172059 0
1.1091 -0.23153 0
1.08645 -0.228959 0
1.06453 -0.224861 0
1.04377 -0.200937 0
1.0217 -0.19926 0
1.00023 -0.196212 0
0.974115 -0.172059 0
0.952552 -0.171097 0
0.93147 -0.168917 0
1.18019 -0.283591 0
1.15945 -0.275401 0
1.14022 -0.265946 0
1.12469 -0.25358 0
1.10425 -0.246894 0
1.0851 -0.239031 0
1.06453 -0.224861 0
1.04434 -0.219534 0
1.02527 -0.213105 0
1.14022 -0.265946 0
1.12265 -0.255491 0
1.10666 -0.244152 0
1.0851 -0.239031 0
1.06743 -0.230249 0
1.05118 -0.220587 0
1.02527 -0.213105 0
1.00759 -0.20577 0
0.991214 -0.197578 0
1.06453 -0.224861 0
1.04434 -0.219534 0
1.02527 -0.213105 0
1.00023 -0.196212 0
0.980225 -0.192038 0
0.961211 -0.186834 0
0.93147 -0.168917 0
0.91163 -0.165714 0
0.892652 -0.161583 0
1.02527 -0.213105 0
1.00759 -0.20577 0
0.991214 -0.197578 0
0.961211 -0.186834 0
0.943411 -0.180775 0
0.926778 -0.173917 0
0.892652 -0.161583 0
0.874768 -0.156666 0
0.857966 -0.151008 0
1.18682 -0.0960983 0
1.17033 -0.111189 0
1.15158 -0.124773 0
1.10407 -0.0767016 0
1.08866 -0.0896998 0
1.07111 -0.101454 0
1.01856 -0.0580996 0
1.00418 -0.0691365 0
0.98764 -0.0791707 0
1.15158 -0.124773 0
1.13171 -0.136661 0
1.11012 -0.146819 0
1.07111 -0.101454 0
1.05241 -0.111797 0
1.03203 -0.120698 0
0.98764 -0.0791707 0
0.969953 -0.0880583 0
0.950588 -0.0957675 0
1.01856 -0.0580996 0
1.00418 -0.0691365 0
0.98764 -0.0791707 0
0.927474 -0.0416754 0
0.914328 -0.0506862 0
0.899015 -0.0589155 0
0.825091 -0.0267157 0
0.813703 -0.0336896 0
0.800026 -0.0401016 0
0.98764 -0.0791707 0
0.969953 -0.0880583 0
0.950588 -0.0957675 0
0.899015 -0.0589155 0
0.882476 -0.0662408 0
0.864221 -0.0726352 0
0.800026 -0.0401016 0
0.785033 -0.0458538 0
0.768234 -0.0509133 0
1.11012 -0.146819 0
1.08822 -0.155193 0
1.06522 -0.16182 0
1.03203 -0.120698 0
1.01122 -0.128107 0
0.989288 -0.134049 0
0.950588 -0.0957675 0
0.930695 -0.102253 0
0.909657 -0.107529 0
1.06522 -0.16182 0
1.04243 -0.166747 0
1.01913 -0.170009 0
0.989288 -0.134049 0
0.967411 -0.138561 0
0.944958 -0.141664 0
0.909657 -0.107529 0
0.888546 -0.111621 0
0.86681 -0.114543 0
0.950588 -0.0957675 0
0.930695 -0.102253 0
0.909657 -0.107529 0
0.864221 -0.0726352 0
0.845323 -0.0780585 0
0.825225 -0.0825158 0
0.768234 -0.0509133 0
0.750661 -0.055248 0
0.731802 -0.0588519 0
0.909657 -0.107529 0
0.888546 -0.111621 0
0.86681 -0.114543 0
0.825225 -0.0825158 0
0.804927 -0.0860271 0
0.783935 -0.0885952 0
0.731802 -0.0588519 0
0.712609 -0.0617413 0
0.692641 -0.0639084 0
0.825091 -0.0267157 0
0.813703 -0.0336896 0
0.800026 -0.0401016 0
0.701018 -0.0148525 0
0.692346 -0.0196733 0
0.681299 -0.0241372 0
0.537712 -0.00559735 0
0.532566 -0.00827252 0
0.525123 -0.0107731 0
0.800026 -0.0401016 0
0.785033 -0.0458538 0
0.768234 -0.0509133 0
0.681299 -0.0241372 0
0.668789 -0.0281729 0
0.654358 -0.0317458 0
0.525123 -0.0107731 0
0.516197 -0.0130624 0
0.505381 -0.0151077 0
0.537712 -0.00559735 0
0.532566 -0.00827252 0
0.525123 -0.0107731 0
0.312502 -0.00144166 0
0.310755 -0.00227139 0
0.307259 -0.00304553 0
0 0 0
0 0 0
0 0 0
0.525123 -0.0107731 0
0.516197 -0.0130624 0
0.505381 -0.0151077 0
0.307259 -0.00304553 0
0.302758 -0.00376213 0
0.296755 -0.00439224 0
0 0 0
0 0 0
0 0 0
0.768234 -0.0509133 0
0.750661 -0.055248 0
0.731802 -0.0588519 0
0.654358 -0.0317458 0
0.638981 -0.034834 0
0.622196 -0.0374215 0
0.505381 -0.0151077 0
0.493514 -0.016905 0
0.480222 -0.0184272 0
0.731802 -0.0588519 0
0.712609 -0.0617413 0
0.692641 -0.0639084 0
0.622196 -0.0374215 0