# vtk DataFile Version 3.0
#This file was generated by the deal.II library on 2025/1/3 at 17:12:09
ASCII
DATASET UNSTRUCTURED_GRID

POINTS 34560 double
1.1 1.1 0
1.03125 1.09531 0
0.9625 1.09063 0
1.09375 1.03125 0
1.02539 1.02686 0
0.957031 1.02246 0
1.0875 0.9625 0
1.01953 0.958398 0
0.951563 0.954297 0
0.9625 1.09063 0
0.89375 1.08594 0
0.825 1.08125 0
0.957031 1.02246 0
0.888672 1.01807 0
0.820312 1.01367 0
0.951563 0.954297 0
0.883594 0.950195 0
0.815625 0.946094 0
1.0875 0.9625 0
1.01953 0.958398 0
0.951563 0.954297 0
1.08125 0.89375 0
1.01367 0.889941 0
0.946094 0.886133 0
1.075 0.825 0
1.00781 0.821484 0
0.940625 0.817969 0
0.951563 0.954297 0
0.883594 0.950195 0
0.815625 0.946094 0
0.946094 0.886133 0
0.878516 0.882324 0
0.810938 0.878516 0
0.940625 0.817969 0
0.873438 0.814453 0
0.80625 0.810937 0
0.825 1.08125 0
0.75625 1.07656 0
0.6875 1.07187 0
0.820312 1.01367 0
0.751953 1.00928 0
0.683594 1.00488 0
0.815625 0.946094 0
0.747656 0.941992 0
0.679688 0.937891 0
0.6875 1.07187 0
0.61875 1.06719 0
0.55 1.0625 0
0.683594 1.00488 0
0.615234 1.00049 0
0.546875 0.996094 0
0.679688 0.937891 0
0.611719 0.933789 0
0.54375 0.929688 0
0.815625 0.946094 0
0.747656 0.941992 0
0.679688 0.937891 0
0.810938 0.878516 0
0.743359 0.874707 0
0.675781 0.870898 0
0.80625 0.810937 0
0.739063 0.807422 0
0.671875 0.803906 0
0.679688 0.937891 0
0.611719 0.933789 0
0.54375 0.929688 0
0.675781 0.870898 0
0.608203 0.86709 0
0.540625 0.863281 0
0.671875 0.803906 0
0.604688 0.800391 0
0.5375 0.796875 0
1.075 0.825 0
1.00781 0.821484 0
0.940625 0.817969 0
1.06875 0.75625 0
1.00195 0.753027 0
0.935156 0.749805 0
1.0625 0.6875 0
0.996094 0.68457 0
0.929688 0.681641 0
0.940625 0.817969 0
0.873438 0.814453 0
0.80625 0.810937 0
0.935156 0.749805 0
0.868359 0.746582 0
0.801563 0.743359 0
0.929688 0.681641 0
0.863281 0.678711 0
0.796875 0.675781 0
1.0625 0.6875 0
0.996094 0.68457 0
0.929688 0.681641 0
1.05625 0.61875 0
0.990234 0.616113 0
0.924219 0.613477 0
1.05 0.55 0
0.984375 0.547656 0
0.91875 0.545313 0
0.929688 0.681641 0
0.863281 0.678711 0
0.796875 0.675781 0
0.924219 0.613477 0
0.858203 0.61084 0
0.792188 0.608203 0
0.91875 0.545313 0
0.853125 0.542969 0
0.7875 0.540625 0
0.80625 0.810937 0
0.739063 0.807422 0
0.671875 0.803906 0
0.801563 0.743359 0
0.734766 0.740137 0
0.667969 0.736914 0
0.796875 0.675781 0
0.730469 0.672852 0
0.664062 0.669922 0
0.671875 0.803906 0
0.604688 0.800391 0
0.5375 0.796875 0
0.667969 0.736914 0
0.601172 0.733691 0
0.534375 0.730469 0
0.664062 0.669922 0
0.597656 0.666992 0
0.53125 0.664062 0
0.796875 0.675781 0
0.730469 0.672852 0
0.664062 0.669922 0
0.792188 0.608203 0
0.726172 0.605566 0
0.660156 0.60293 0
0.7875 0.540625 0
0.721875 0.538281 0
0.65625 0.535937 0
0.664062 0.669922 0
0.597656 0.666992 0
0.53125 0.664062 0
0.660156 0.60293 0
0.594141 0.600293 0
0.528125 0.597656 0
0.65625 0.535937 0
0.590625 0.533594 0
0.525 0.53125 0
0.55 1.0625 0
0.48125 1.05781 0
0.4125 1.05313 0
0.546875 0.996094 0
0.478516 0.991699 0
0.410156 0.987305 0
0.54375 0.929688 0
0.475781 0.925586 0
0.407813 0.921484 0
0.4125 1.05313 0
0.34375 1.04844 0
0.275 1.04375 0
0.410156 0.987305 0
0.341797 0.98291 0
0.273438 0.978516 0
0.407813 0.921484 0
0.339844 0.917383 0
0.271875 0.913281 0
0.54375 0.929688 0
0.475781 0.925586 0
0.407813 0.921484 0
0.540625 0.863281 0
0.473047 0.859473 0
0.405469 0.855664 0
0.5375 0.796875 0
0.470313 0.793359 0
0.403125 0.789844 0
0.407813 0.921484 0
0.339844 0.917383 0
0.271875 0.913281 0
0.405469 0.855664 0
0.337891 0.851855 0
0.270313 0.848047 0
0.403125 0.789844 0
0.335938 0.786328 0
0.26875 0.782813 0
0.275 1.04375 0
0.20625 1.03906 0
0.1375 1.03437 0
0.273438 0.978516 0
0.205078 0.974121 0
0.136719 0.969727 0
0.271875 0.913281 0
0.203906 0.90918 0
0.135938 0.905078 0
0.1375 1.03437 0
0.06875 1.02969 0
0 1.025 0
0.136719 0.969727 0
0.0683594 0.965332 0
0 0.960937 0
0.135938 0.905078 0
0.0679688 0.900977 0
0 0.896875 0
0.271875 0.913281 0
0.203906 0.90918 0
0.135938 0.905078 0
0.270313 0.848047 0
0.202734 0.844238 0
0.135156 0.84043 0
0.26875 0.782813 0
0.201563 0.779297 0
0.134375 0.775781 0
0.135938 0.905078 0
0.0679688 0.900977 0
0 0.896875 0
0.135156 0.84043 0
0.0675781 0.836621 0
0 0.832812 0
0.134375 0.775781 0
0.0671875 0.772266 0
0 0.76875 0
0.5375 0.796875 0
0.470313 0.793359 0
0.403125 0.789844 0
0.534375 0.730469 0
0.467578 0.727246 0
0.400781 0.724023 0
0.53125 0.664062 0
0.464844 0.661133 0
0.398438 0.658203 0
0.403125 0.789844 0
0.335938 0.786328 0
0.26875 0.782813 0
0.400781 0.724023 0
0.333984 0.720801 0
0.267188 0.717578 0
0.398438 0.658203 0
0.332031 0.655273 0
0.265625 0.652344 0
0.53125 0.664062 0
0.464844 0.661133 0
0.398438 0.658203 0
0.528125 0.597656 0
0.462109 0.59502 0
0.396094 0.592383 0
0.525 0.53125 0
0.459375 0.528906 0
0.39375 0.526563 0
0.398438 0.658203 0
0.332031 0.655273 0
0.265625 0.652344 0
0.396094 0.592383 0
0.330078 0.589746 0
0.264062 0.587109 0
0.39375 0.526563 0
0.328125 0.524219 0
0.2625 0.521875 0
0.26875 0.782813 0
0.201563 0.779297 0
0.134375 0.775781 0
0.267188 0.717578 0
0.200391 0.714355 0
0.133594 0.711133 0
0.265625 0.652344 0
0.199219 0.649414 0
0.132812 0.646484 0
0.134375 0.775781 0
0.0671875 0.772266 0
0 0.76875 0
0.133594 0.711133 0
0.0667969 0.70791 0
0 0.704687 0
0.132812 0.646484 0
0.0664062 0.643555 0
0 0.640625 0
0.265625 0.652344 0
0.199219 0.649414 0
0.132812 0.646484 0
0.264062 0.587109 0
0.198047 0.584473 0
0.132031 0.581836 0
0.2625 0.521875 0
0.196875 0.519531 0
0.13125 0.517187 0
0.132812 0.646484 0
0.0664062 0.643555 0
0 0.640625 0
0.132031 0.581836 0
0.0660156 0.579199 0
0 0.576562 0
0.13125 0.517187 0
0.065625 0.514844 0
0 0.5125 0
1.05 0.55 0
0.984375 0.547656 0
0.91875 0.545313 0
1.04375 0.48125 0
0.978516 0.479199 0
0.913281 0.477148 0
1.0375 0.4125 0
0.972656 0.410742 0
0.907813 0.408984 0
0.91875 0.545313 0
0.853125 0.542969 0
0.7875 0.540625 0
0.913281 0.477148 0
0.848047 0.475098 0
0.782813 0.473047 0
0.907813 0.408984 0
0.842969 0.407227 0
0.778125 0.405469 0
1.0375 0.4125 0
0.972656 0.410742 0
0.907813 0.408984 0
1.03125 0.34375 0
0.966797 0.342285 0
0.902344 0.34082 0
1.025 0.275 0
0.960937 0.273828 0
0.896875 0.272656 0
0.907813 0.408984 0
0.842969 0.407227 0
0.778125 0.405469 0
0.902344 0.34082 0
0.837891 0.339355 0
0.773438 0.337891 0
0.896875 0.272656 0
0.832812 0.271484 0
0.76875 0.270313 0
0.7875 0.540625 0
0.721875 0.538281 0
0.65625 0.535937 0
0.782813 0.473047 0
0.717578 0.470996 0
0.652344 0.468945 0
0.778125 0.405469 0
0.713281 0.403711 0
0.648438 0.401953 0
0.65625 0.535937 0
0.590625 0.533594 0
0.525 0.53125 0
0.652344 0.468945 0
0.587109 0.466895 0
0.521875 0.464844 0
0.648438 0.401953 0
0.583594 0.400195 0
0.51875 0.398438 0
0.778125 0.405469 0
0.713281 0.403711 0
0.648438 0.401953 0
0.773438 0.337891 0
0.708984 0.336426 0
0.644531 0.334961 0
0.76875 0.270313 0
0.704687 0.269141 0
0.640625 0.267969 0
0.648438 0.401953 0
0.583594 0.400195 0
0.51875 0.398438 0
0.644531 0.334961 0
0.580078 0.333496 0
0.515625 0.332031 0
0.640625 0.267969 0
0.576562 0.266797 0
0.5125 0.265625 0
1.025 0.275 0
0.960937 0.273828 0
0.896875 0.272656 0
1.01875 0.20625 0
0.955078 0.205371 0
0.891406 0.204492 0
1.0125 0.1375 0
0.949219 0.136914 0
0.885937 0.136328 0
0.896875 0.272656 0
0.832812 0.271484 0
0.76875 0.270313 0
0.891406 0.204492 0
0.827734 0.203613 0
0.764062 0.202734 0
0.885937 0.136328 0
0.822656 0.135742 0
0.759375 0.135156 0
1.0125 0.1375 0
0.949219 0.136914 0
0.885937 0.136328 0
1.00625 0.06875 0
0.943359 0.068457 0
0.880469 0.0681641 0
1 0 0
0.9375 0 0
0.875 0 0
0.885937 0.136328 0
0.822656 0.135742 0
0.759375 0.135156 0
0.880469 0.0681641 0
0.817578 0.0678711 0
0.754687 0.0675781 0
0.875 0 0
0.8125 0 0
0.75 0 0
0.76875 0.270313 0
0.704687 0.269141 0
0.640625 0.267969 0
0.764062 0.202734 0
0.700391 0.201855 0
0.636719 0.200977 0
0.759375 0.135156 0
0.696094 0.13457 0
0.632812 0.133984 0
0.640625 0.267969 0
0.576562 0.266797 0
0.5125 0.265625 0
0.636719 0.200977 0
0.573047 0.200098 0
0.509375 0.199219 0
0.632812 0.133984 0
0.569531 0.133398 0
0.50625 0.132812 0
0.759375 0.135156 0
0.696094 0.13457 0
0.632812 0.133984 0
0.754687 0.0675781 0
0.691797 0.0672852 0
0.628906 0.0669922 0
0.75 0 0
0.6875 0 0
0.625 0 0
0.632812 0.133984 0
0.569531 0.133398 0
0.50625 0.132812 0
0.628906 0.0669922 0
0.566016 0.0666992 0
0.503125 0.0664062 0
0.625 0 0
0.5625 0 0
0.5 0 0
0.525 0.53125 0
0.459375 0.528906 0
0.39375 0.526563 0
0.521875 0.464844 0
0.456641 0.462793 0
0.391406 0.460742 0
0.51875 0.398438 0
0.453906 0.39668 0
0.389063 0.394922 0
0.39375 0.526563 0
0.328125 0.524219 0
0.2625 0.521875 0
0.391406 0.460742 0
0.326172 0.458691 0
0.260938 0.456641 0
0.389063 0.394922 0
0.324219 0.393164 0
0.259375 0.391406 0
0.51875 0.398438 0
0.453906 0.39668 0
0.389063 0.394922 0
0.515625 0.332031 0
0.451172 0.330566 0
0.386719 0.329102 0
0.5125 0.265625 0
0.448437 0.264453 0
0.384375 0.263281 0
0.389063 0.394922 0
0.324219 0.393164 0
0.259375 0.391406 0
0.386719 0.329102 0
0.322266 0.327637 0
0.257812 0.326172 0
0.384375 0.263281 0
0.320312 0.262109 0
0.25625 0.260937 0
0.2625 0.521875 0
0.196875 0.519531 0
0.13125 0.517187 0
0.260938 0.456641 0
0.195703 0.45459 0
0.130469 0.452539 0
0.259375 0.391406 0
0.194531 0.389648 0
0.129688 0.387891 0
0.13125 0.517187 0
0.065625 0.514844 0
0 0.5125 0
0.130469 0.452539 0
0.0652344 0.450488 0
0 0.448437 0
0.129688 0.387891 0
0.0648438 0.386133 0
0 0.384375 0
0.259375 0.391406 0
0.194531 0.389648 0
0.129688 0.387891 0
0.257812 0.326172 0
0.193359 0.324707 0
0.128906 0.323242 0
0.25625 0.260937 0
0.192187 0.259766 0
0.128125 0.258594 0
0.129688 0.387891 0
0.0648438 0.386133 0
0 0.384375 0
0.128906 0.323242 0
0.0644531 0.321777 0
0 0.320312 0
0.128125 0.258594 0
0.0640625 0.257422 0
0 0.25625 0
0.5125 0.265625 0
0.448437 0.264453 0
0.384375 0.263281 0
0.509375 0.199219 0
0.445703 0.19834 0
0.382031 0.197461 0
0.50625 0.132812 0
0.442969 0.132227 0
0.379688 0.131641 0
0.384375 0.263281 0
0.320312 0.262109 0
0.25625 0.260937 0
0.382031 0.197461 0
0.318359 0.196582 0
0.254687 0.195703 0
[...]
POINT_DATA 34560
VECTORS v double
1.19776 -0.218989 0
1.18866 -0.194182 0
1.18105 -0.17256 0
1.16705 -0.207681 0
1.15576 -0.185819 0
1.14644 -0.165858 0
1.13167 -0.195449 0
1.11889 -0.175637 0
1.1077 -0.157384 0
1.18105 -0.17256 0
1.17459 -0.152589 0
1.16934 -0.134975 0
1.14644 -0.165858 0
1.13792 -0.147533 0
1.13105 -0.131034 0
1.1077 -0.157384 0
1.09761 -0.140568 0
1.08899 -0.125236 0
1.13167 -0.195449 0
1.11889 -0.175637 0
1.1077 -0.157384 0
1.09004 -0.180593 0
1.07585 -0.163064 0
1.06331 -0.146792 0
1.04227 -0.165966 0
1.02727 -0.150439 0
1.01376 -0.13589 0
1.1077 -0.157384 0
1.09761 -0.140568 0
1.08899 -0.125236 0
1.06331 -0.146792 0
1.05189 -0.131667 0
1.04196 -0.117784 0
1.01376 -0.13589 0
1.00145 -0.122282 0
0.990529 -0.109696 0
1.16934 -0.134975 0
1.16443 -0.11892 0
1.16041 -0.104599 0
1.13105 -0.131034 0
1.12436 -0.115917 0
1.11895 -0.1023 0
1.08899 -0.125236 0
1.08086 -0.111155 0
1.07397 -0.0983363 0
1.16041 -0.104599 0
1.15631 -0.0915082 0
1.1528 -0.0796273 0
1.11895 -0.1023 0
1.11339 -0.0897419 0
1.10875 -0.0782791 0
1.07397 -0.0983363 0
1.06719 -0.0864797 0
1.06138 -0.0755687 0
1.08899 -0.125236 0
1.08086 -0.111155 0
1.07397 -0.0983363 0
1.04196 -0.117784 0
1.03266 -0.104918 0
1.0246 -0.0931334 0
0.990529 -0.109696 0
0.980356 -0.0979748 0
0.971392 -0.0871724 0
1.07397 -0.0983363 0
1.06719 -0.0864797 0
1.06138 -0.0755687 0
1.0246 -0.0931334 0
1.01686 -0.082152 0
1.01012 -0.0719837 0
0.971392 -0.0871724 0
0.962886 -0.0770641 0
0.955383 -0.0676562 0
1.04227 -0.165966 0
1.02727 -0.150439 0
1.01376 -0.13589 0
0.989135 -0.15043 0
0.973543 -0.136806 0
0.959366 -0.123957 0
0.931073 -0.135053 0
0.915136 -0.123125 0
0.900495 -0.111807 0
1.01376 -0.13589 0
1.00145 -0.122282 0
0.990529 -0.109696 0
0.959366 -0.123957 0
0.946374 -0.111858 0
0.934704 -0.100611 0
0.900495 -0.111807 0
0.887032 -0.101109 0
0.874811 -0.0911176 0
0.931073 -0.135053 0
0.915136 -0.123125 0
0.900495 -0.111807 0
0.867962 -0.118848 0
0.851824 -0.108577 0
0.836928 -0.0987973 0
0.800025 -0.103117 0
0.7839 -0.0943458 0
0.768936 -0.0859615 0
0.900495 -0.111807 0
0.887032 -0.101109 0
0.874811 -0.0911176 0
0.836928 -0.0987973 0
0.823176 -0.0895154 0
0.810616 -0.0808192 0
0.768936 -0.0859615 0
0.755091 -0.0779825 0
0.742375 -0.0704872 0
0.990529 -0.109696 0
0.980356 -0.0979748 0
0.971392 -0.0871724 0
0.934704 -0.100611 0
0.923858 -0.0900877 0
0.91418 -0.0803467 0
0.874811 -0.0911176 0
0.86347 -0.081742 0
0.853254 -0.0730332 0
0.971392 -0.0871724 0
0.962886 -0.0770641 0
0.955383 -0.0676562 0
0.91418 -0.0803467 0
0.905079 -0.0711962 0
0.896978 -0.0626463 0
0.853254 -0.0730332 0
0.843706 -0.0648352 0
0.835145 -0.0571535 0
0.874811 -0.0911176 0
0.86347 -0.081742 0
0.853254 -0.0730332 0
0.810616 -0.0808192 0
0.798961 -0.072634 0
0.788396 -0.0650141 0
0.742375 -0.0704872 0
0.73058 -0.0634246 0
0.71983 -0.056842 0
0.853254 -0.0730332 0
0.843706 -0.0648352 0
0.835145 -0.0571535 0
0.788396 -0.0650141 0
0.778558 -0.0578267 0
0.769694 -0.0510808 0
0.71983 -0.056842 0
0.70985 -0.0506341 0
0.70082 -0.0448054 0
1.1528 -0.0796273 0
1.1491 -0.0685704 0
1.1458 -0.0582556 0
1.10875 -0.0782791 0
1.10394 -0.067529 0
1.0998 -0.0574654 0
1.06138 -0.0755687 0
1.05563 -0.0652993 0
1.05063 -0.0556323 0
1.1458 -0.0582556 0
1.14221 -0.0483703 0
1.13887 -0.0388192 0
1.0998 -0.0574654 0
1.09543 -0.0477669 0
1.09151 -0.038374 0
1.05063 -0.0556323 0
1.04558 -0.0462842 0
1.04111 -0.0371958 0
1.06138 -0.0755687 0
1.05563 -0.0652993 0
1.05063 -0.0556323 0
1.01012 -0.0719837 0
1.00362 -0.0623527 0
0.997927 -0.0532403 0
0.955383 -0.0676562 0
0.94827 -0.0587125 0
0.942005 -0.050212 0
1.05063 -0.0556323 0
1.04558 -0.0462842 0
1.04111 -0.0371958 0
0.997927 -0.0532403 0
0.992366 -0.0443842 0
0.987452 -0.0357329 0
0.942005 -0.050212 0
0.936018 -0.0419193 0
0.930741 -0.0337868 0
1.13887 -0.0388192 0
1.13534 -0.029332 0
1.132 -0.0198136 0
1.09151 -0.038374 0
1.08752 -0.0290239 0
1.08388 -0.0196353 0
1.04111 -0.0371958 0
1.03671 -0.0281258 0
1.0328 -0.0190086 0
1.132 -0.0198136 0
1.12843 -0.0100497 0
1.125 0 0
1.08388 -0.0196353 0
1.08013 -0.00999356 0
1.07666 0 0
1.0328 -0.0190086 0
1.02889 -0.00964652 0
1.02539 0 0
1.04111 -0.0371958 0
1.03671 -0.0281258 0
1.0328 -0.0190086 0
0.987452 -0.0357329 0
0.982762 -0.0270644 0
0.978644 -0.0183286 0
0.930741 -0.0337868 0
0.925813 -0.0256129 0
0.921534 -0.0173511 0
1.0328 -0.0190086 0
1.02889 -0.00964652 0
1.02539 0 0
0.978644 -0.0183286 0
0.974665 -0.00933426 0
0.971191 0 0
0.921534 -0.0173511 0
0.917505 -0.00882746 0
0.914062 0 0
0.955383 -0.0676562 0
0.94827 -0.0587125 0
0.942005 -0.050212 0
0.896978 -0.0626463 0
0.88939 -0.0544862 0
0.882677 -0.0466998 0
0.835145 -0.0571535 0
0.827197 -0.0498057 0
0.820139 -0.0427731 0
0.942005 -0.050212 0
0.936018 -0.0419193 0
0.930741 -0.0337868 0
0.882677 -0.0466998 0
0.876369 -0.0390713 0
0.870822 -0.0315588 0
0.820139 -0.0427731 0
0.813593 -0.0358604 0
0.807849 -0.0290254 0
0.835145 -0.0571535 0
0.827197 -0.0498057 0
0.820139 -0.0427731 0
0.769694 -0.0510808 0
0.761514 -0.0446135 0
0.754234 -0.038409 0
0.70082 -0.0448054 0
0.692523 -0.0392166 0
0.685123 -0.033849 0
0.820139 -0.0427731 0
0.813593 -0.0358604 0
0.807849 -0.0290254 0
0.754234 -0.038409 0
0.747547 -0.0322858 0
0.741694 -0.0262048 0
0.685123 -0.033849 0
0.678378 -0.0285383 0
0.672485 -0.0232423 0
0.930741 -0.0337868 0
0.925813 -0.0256129 0
0.921534 -0.0173511 0
0.870822 -0.0315588 0
0.865736 -0.0239731 0
0.861365 -0.0162751 0
0.807849 -0.0290254 0
0.802661 -0.0220935 0
0.798243 -0.0150279 0
0.921534 -0.0173511 0
0.917505 -0.00882746 0
0.914062 0 0
0.861365 -0.0162751 0
0.857353 -0.00830211 0
0.854004 0 0
0.798243 -0.0150279 0
0.794268 -0.00767903 0
0.791016 0 0
0.807849 -0.0290254 0
0.802661 -0.0220935 0
0.798243 -0.0150279 0
0.741694 -0.0262048 0
0.736473 -0.0200004 0
0.732071 -0.0136406 0
0.672485 -0.0232423 0
0.667286 -0.0178057 0
0.662944 -0.0121953 0
0.798243 -0.0150279 0
0.794268 -0.00767903 0
0.791016 0 0
0.732071 -0.0136406 0
0.728193 -0.006985 0
0.725098 0 0
0.662944 -0.0121953 0
0.659185 -0.00627973 0
0.65625 0 0
0.800025 -0.103117 0
0.7839 -0.0943458 0
0.768936 -0.0859615 0
0.727448 -0.0869451 0
0.711422 -0.079614 0
0.69652 -0.0725967 0
0.650123 -0.0712738 0
0.634353 -0.0652945 0
0.619661 -0.0595632 0
0.768936 -0.0859615 0
0.755091 -0.0779825 0
0.742375 -0.0704872 0
0.69652 -0.0725967 0
0.682705 -0.0659081 0
0.669985 -0.0596201 0
0.619661 -0.0595632 0
0.60604 -0.0540973 0
0.593479 -0.0489581 0
0.650123 -0.0712738 0
0.634353 -0.0652945 0
0.619661 -0.0595632 0
0.567764 -0.0553635 0
0.552378 -0.0507055 0
0.538064 -0.0462487 0
0.479212 -0.0402168 0
0.464567 -0.0368296 0
0.450964 -0.0335949 0
0.619661 -0.0595632 0
0.60604 -0.0540973 0
0.593479 -0.0489581 0
0.538064 -0.0462487 0
0.524802 -0.0420023 0
0.512585 -0.0380172 0
0.450964 -0.0335949 0
0.438388 -0.0305168 0
0.426825 -0.0276366 0
0.742375 -0.0704872 0
0.73058 -0.0634246 0
0.71983 -0.056842 0
0.669985 -0.0596201 0
0.65819 -0.0536926 0
0.647413 -0.0481701 0
0.593479 -0.0489581 0
0.58185 -0.0441165 0
0.571209 -0.0396115 0
0.71983 -0.056842 0
0.70985 -0.0506341 0
0.70082 -0.0448054 0
0.647413 -0.0481701 0
0.637432 -0.0429653 0
0.62838 -0.0380839 0
0.571209 -0.0396115 0
0.561379 -0.0353746 0
0.552454 -0.0314099 0
0.593479 -0.0489581 0
0.58185 -0.0441165 0
0.571209 -0.0396115 0
0.512585 -0.0380172 0
0.501298 -0.0342683 0
0.490979 -0.0307893 0
0.426825 -0.0276366 0
0.416171 -0.0249319 0
0.406445 -0.0224306 0
0.571209 -0.0396115 0
0.561379 -0.0353746 0
0.552454 -0.0314099 0
0.490979 -0.0307893 0
0.481476 -0.0275248 0
0.472852 -0.0244794 0
0.406445 -0.0224306 0
0.397518 -0.0200888 0
0.389427 -0.0179124 0
0.479212 -0.0402168 0
0.464567 -0.0368296 0
0.450964 -0.0335949 0
0.382599 -0.0256133 0
0.369291 -0.0234361 0
0.356981 -0.0213694 0
0.274424 -0.0130424 0
0.263607 -0.0119493 0
0.253621 -0.0109182 0
0.450964 -0.0335949 0
0.438388 -0.0305168 0
0.426825 -0.0276366 0
0.356981 -0.0213694 0
0.345625 -0.0194096 0
0.335215 -0.017587 0
0.253621 -0.0109182 0
0.244425 -0.00993885 0
0.236009 -0.00903413 0
0.274424 -0.0130424 0
0.263607 -0.0119493 0
0.253621 -0.0109182 0
0.149862 -0.00368807 0
0.143225 -0.00337064 0
0.137111 -0.00307996 0
0 0 0
0 0 0
0 0 0
0.253621 -0.0109182 0
0.244425 -0.00993885 0
0.236009 -0.00903413 0
0.137111 -0.00307996 0
0.131462 -0.00280228 0
0.12629 -0.00255446 0
0 0 0
0 0 0
0 0 0
0.426825 -0.0276366 0
0.416171 -0.0249319 0
0.406445 -0.0224306 0
0.335215 -0.017587 0
0.325647 -0.0158806 0
0.316932 -0.014311 0
0.236009 -0.00903413 0
0.22828 -0.00818459 0
0.22124 -0.00740779 0
0.406445 -0.0224306 0
0.397518 -0.0200888 0
0.389427 -0.0179124 0
0.316932 -0.014311 0
0.308949 -0.0128433 0
0.301724 -0.0114853 0
0.22124 -0.00740779 0
0.214791 -0.00667893 0
0.208947 -0.00600817 0
0.236009 -0.00903413 0
0.22828 -0.00818459 0
0.22124 -0.00740779 0
0.12629 -0.00255446 0
0.121519 -0.00231688 0
0.117164 -0.00210657 0
0 0 0
0 0 0
0 0 0
0.22124 -0.00740779 0
0.214791 -0.00667893 0
0.208947 -0.00600817 0
0.117164 -0.00210657 0
0.113149 -0.00190314 0
0.1095 -0.00172189 0
0 0 0
0 0 0
0 0 0
0.70082 -0.0448054 0
0.692523 -0.0392166 0
0.685123 -0.033849 0
0.62838 -0.0380839 0
0.620088 -0.0334052 0
0.612683 -0.0289126 0
0.552454 -0.0314099 0
0.544298 -0.0276183 0
0.537007 -0.023984 0
0.685123 -0.033849 0
0.678378 -0.0285383 0
0.672485 -0.0232423 0
0.612683 -0.0289126 0
0.605973 -0.0244556 0
0.600123 -0.0199922 0
0.537007 -0.023984 0
0.530427 -0.020375 0
0.524698 -0.0167465 0
0.552454 -0.0314099 0
0.544298 -0.0276183 0
0.537007 -0.023984 0
0.472852 -0.0244794 0
0.464987 -0.0215717 0
0.457957 -0.0187924 0
0.389427 -0.0179124 0
0.38206 -0.0158392 0
0.375474 -0.013864 0
0.537007 -0.023984 0
0.530427 -0.020375 0
0.524698 -0.0167465 0
0.457957 -0.0187924 0
0.451629 -0.0160292 0
0.446126 -0.01324 0
0.375474 -0.013864 0
0.369555 -0.0118989 0
0.364408 -0.00990752 0
0.672485 -0.0232423 0
0.667286 -0.0178057 0
0.662944 -0.0121953 0
0.600123 -0.0199922 0
0.595009 -0.0153741 0
0.59078 -0.0105692 0
0.524698 -0.0167465 0
0.519727 -0.0129608 0
0.515655 -0.00898229 0
0.662944 -0.0121953 0
0.659185 -0.00627973 0
0.65625 0 0
0.59078 -0.0105692 0
0.587191 -0.0054512 0
0.584473 0 0
0.515655 -0.00898229 0
0.512262 -0.00469013 0
0.509766 0 0
0.524698 -0.0167465 0
0.519727 -0.0129608 0
0.515655 -0.00898229 0
0.446126 -0.01324 0
0.441371 -0.0102995 0
0.437507 -0.00717677 0
0.364408 -0.00990752 0
0.359968 -0.00778509 0
0.35638 -0.00549551 0
0.515655 -0.00898229 0
0.512262 -0.00469013 0
0.509766 0 0
0.437507 -0.00717677 0
0.434354 -0.00375294 0
0.432129 0 0
0.35638 -0.00549551 0
0.353507 -0.00293974 0
0.351562 0 0
0.389427 -0.0179124 0
0.38206 -0.0158392 0
0.375474 -0.013864 0
0.301724 -0.0114853 0
0.295146 -0.0101895 0
0.289266 -0.00895742 0
0.208947 -0.00600817 0
0.203617 -0.00536516 0
0.19884 -0.00475487 0
0.375474 -0.013864 0
0.369555 -0.0118989 0
0.364408 -0.00990752 0
0.289266 -0.00895742 0
0.283979 -0.00772528 0
0.279381 -0.00647 0
0.19884 -0.00475487 0
0.19453 -0.00414032 0
0.190775 -0.00351437 0
0.208947 -0.00600817 0
0.203617 -0.00536516 0
0.19884 -0.00475487 0
0.1095 -0.00172189 0
0.106144 -0.00154253 0
0.103132 -0.0013755 0
0 0 0
0 0 0
0 0 0
0.19884 -0.00475487 0
0.19453 -0.00414032 0
0.190775 -0.00351437 0
0.103132 -0.0013755 0
0.100385 -0.00119736 0
0.0979893 -0.00101961 0
0 0 0
0 0 0
0 0 0
0.364408 -0.00990752 0
0.359968 -0.00778509 0
0.35638 -0.00549551 0
0.279381 -0.00647 0
0.275407 -0.00510815 0
0.272213 -0.0036179 0
0.190775 -0.00351437 0
0.187521 -0.00282843 0
0.184917 -0.00205159 0
0.35638 -0.00549551 0
0.353507 -0.00293974 0
0.351562 0 0
0.272213 -0.0036179 0
0.26969 -0.00191195 0
0.268066 0 0
0.184917 -0.00205159 0
0.182887 -0.00114445 0
0.181641 0 0
0.190775 -0.00351437 0
0.187521 -0.00282843 0
0.184917 -0.00205159 0
0.0979893 -0.00101961 0
0.0958843 -0.00082273 0
0.0942554 -0.000588451 0
0 0 0
0 0 0
0 0 0
0.184917 -0.00205159 0
0.182887 -0.00114445 0
0.181641 0 0
0.0942554 -0.000588451 0
0.0929631 -0.000274887 0
0.0922852 0 0
0 0 0
0 0 0
0 0 0
1.59854 -0.395928 0
1.56437 -0.411592 0
1.52719 -0.422571 0
1.53994 -0.352794 0
1.50882 -0.366911 0
1.47526 -0.376901 0
1.47725 -0.314899 0
1.44993 -0.327587 0
1.42041 -0.336846 0
1.52719 -0.422571 0
1.49011 -0.427713 0
1.45135 -0.427765 0
1.47526 -0.376901 0
1.44179 -0.38243 0
1.40692 -0.383574 0
1.42041 -0.336846 0
1.39098 -0.342489 0
1.36029 -0.344383 0
1.47725 -0.314899 0
1.44993 -0.327587 0
1.42041 -0.336846 0
1.41713 -0.282686 0
1.39243 -0.292911 0
1.36594 -0.30041 0
1.35337 -0.25099 0
1.33003 -0.259782 0
1.30522 -0.26632 0
1.42041 -0.336846 0
1.39098 -0.342489 0
1.36029 -0.344383 0
1.36594 -0.30041 0
1.33928 -0.304976 0
1.3115 -0.306548 0
1.30522 -0.26632 0
1.28035 -0.270474 0
1.25459 -0.272152 0
1.45135 -0.427765 0
1.41574 -0.422726 0
1.38 -0.412942 0
1.40692 -0.383574 0
1.37465 -0.380409 0
1.34224 -0.373517 0
1.36029 -0.344383 0
1.33154 -0.342727 0
1.30259 -0.337708 0
1.38 -0.412942 0
1.34874 -0.399785 0
1.31851 -0.383258 0
1.34224 -0.373517 0
1.31351 -0.363349 0
1.28568 -0.350333 0
1.30259 -0.337708 0
1.27644 -0.329755 0
1.25096 -0.319157 0
1.36029 -0.344383 0
1.33154 -0.342727 0
1.30259 -0.337708 0
1.3115 -0.306548 0
1.28505 -0.305221 0
1.25832 -0.30114 0
1.25459 -0.272152 0
1.22993 -0.271422 0
1.20511 -0.268391 0
1.30259 -0.337708 0
1.27644 -0.329755 0
1.25096 -0.319157 0
1.25832 -0.30114 0
1.23374 -0.294658 0
1.20966 -0.285978 0
1.20511 -0.268391 0
1.18207 -0.263295 0
1.15953 -0.256293 0
1.35337 -0.25099 0
1.33003 -0.259782 0
1.30522 -0.26632 0
1.28645 -0.222695 0
1.26453 -0.230337 0
1.24138 -0.236051 0
1.21866 -0.195328 0
1.19781 -0.202025 0
1.17589 -0.207098 0
1.30522 -0.26632 0
1.28035 -0.270474 0
1.25459 -0.272152 0
1.24138 -0.236051 0
1.21822 -0.239724 0
1.19432 -0.241301 0
1.17589 -0.207098 0
1.15396 -0.210451 0
1.13139 -0.212024 0
1.21866 -0.195328 0
1.19781 -0.202025 0
1.17589 -0.207098 0
1.14906 -0.169461 0
1.12891 -0.175162 0
1.10785 -0.179498 0
1.07672 -0.144334 0
1.05699 -0.149289 0
1.03645 -0.153106 0
1.17589 -0.207098 0
1.15396 -0.210451 0
1.13139 -0.212024 0
1.10785 -0.179498 0
1.08677 -0.1824 0
1.06514 -0.183814 0
1.03645 -0.153106 0
1.01595 -0.155731 0
0.994989 -0.157108 0
1.25459 -0.272152 0
1.22993 -0.271422 0
1.20511 -0.268391 0
1.19432 -0.241301 0
1.17134 -0.240831 0
1.14822 -0.238386 0
1.13139 -0.212024 0
1.10956 -0.211854 0
1.08762 -0.209993 0
1.20511 -0.268391 0
1.18207 -0.263295 0
1.15953 -0.256293 0
1.14822 -0.238386 0
1.12656 -0.234162 0
1.1053 -0.228279 0
1.08762 -0.209993 0
1.06688 -0.206594 0
1.04651 -0.201756 0
1.13139 -0.212024 0
1.10956 -0.211854 0
1.08762 -0.209993 0
1.06514 -0.183814 0
1.04415 -0.183777 0
1.02306 -0.182315 0
0.994989 -0.157108 0
0.974592 -0.157266 0
0.95415 -0.156219 0
1.08762 -0.209993 0
1.06688 -0.206594 0
1.04651 -0.201756 0
1.02306 -0.182315 0
1.003 -0.17956 0
0.983297 -0.175571 0
0.95415 -0.156219 0
0.934607 -0.154067 0
0.915408 -0.150857 0
1.31851 -0.383258 0
1.29336 -0.364956 0
1.27024 -0.344405 0
1.28568 -0.350333 0
1.26215 -0.335116 0
1.24034 -0.318276 0
1.25096 -0.319157 0
1.22879 -0.306579 0
1.20801 -0.292344 0
1.27024 -0.344405 0
1.25127 -0.323411 0
1.23466 -0.301687 0
1.24034 -0.318276 0
1.22208 -0.300469 0
1.20591 -0.281838 0
1.20801 -0.292344 0
1.19015 -0.277004 0
1.174 -0.2608 0
1.25096 -0.319157 0
1.22879 -0.306579 0
1.20801 -0.292344 0
1.20966 -0.285978 0
1.1883 -0.275585 0
1.1681 -0.263692 0
1.15953 -0.256293 0
1.13927 -0.247729 0
1.12006 -0.237826 0
1.20801 -0.292344 0
1.19015 -0.277004 0
1.174 -0.2608 0
1.1681 -0.263692 0
1.15042 -0.250797 0
1.13427 -0.237112 0
1.12006 -0.237826 0
1.103 -0.226954 0
1.0873 -0.215292 0
1.23466 -0.301687 0
1.22174 -0.280271 0
1.21147 -0.258847 0
1.20591 -0.281838 0
1.19296 -0.262942 0
1.18227 -0.244121 0
1.174 -0.2608 0
1.16055 -0.24428 0
1.14903 -0.227664 0
1.21147 -0.258847 0
1.20357 -0.238385 0
1.19776 -0.218989 0
1.18227 -0.244121 0
1.17361 -0.2257 0
1.16705 -0.207681 0
1.14903 -0.227664 0
1.13943 -0.2113 0
1.13167 -0.195449 0
1.174 -0.2608 0
1.16055 -0.24428 0
1.14903 -0.227664 0
1.13427 -0.237112 0
1.12058 -0.223049 0
1.10866 -0.208775 0
1.0873 -0.215292 0
1.07373 -0.203165 0
1.06172 -0.19076 0
1.14903 -0.227664 0
1.13943 -0.2113 0
1.13167 -0.195449 0
1.10866 -0.208775 0
1.0985 -0.194575 0
1.09004 -0.180593 0
1.06172 -0.19076 0
1.05124 -0.178304 0
1.04227 -0.165966 0
1.15953 -0.256293 0
1.13927 -0.247729 0
1.12006 -0.237826 0
1.1053 -0.228279 0
1.08593 -0.221036 0
1.06747 -0.212606 0
1.04651 -0.201756 0
1.02774 -0.195715 0
1.00977 -0.188619 0
1.12006 -0.237826 0
1.103 -0.226954 0
1.0873 -0.215292 0
1.06747 -0.212606 0
1.0508 -0.203301 0
1.03532 -0.193257 0
1.00977 -0.188619 0
0.993377 -0.180719 0
0.97806 -0.172144 0
1.04651 -0.201756 0
1.02774 -0.195715 0
1.00977 -0.188619 0
0.983297 -0.175571 0
0.964966 -0.170549 0
0.947375 -0.164602 0
0.915408 -0.150857 0
0.897405 -0.146745 0
0.880092 -0.141827 0
1.00977 -0.188619 0
0.993377 -0.180719 0
0.97806 -0.172144 0
0.947375 -0.164602 0
0.931171 -0.157943 0
0.915951 -0.150672 0
0.880092 -0.141827 0
0.864009 -0.136271 0
0.848839 -0.130165 0
1.0873 -0.215292 0
1.07373 -0.203165 0
1.06172 -0.19076 0
1.03532 -0.193257 0
1.0217 -0.182776 0
1.00945 -0.172026 0
0.97806 -0.172144 0
0.9644 -0.163142 0
0.952 -0.153861 0
1.06172 -0.19076 0
1.05124 -0.178304 0
1.04227 -0.165966 0
1.00945 -0.172026 0
0.998613 -0.161214 0
0.989135 -0.15043 0
0.952 -0.153861 0
0.940908 -0.144465 0
0.931073 -0.135053 0
0.97806 -0.172144 0
0.9644 -0.163142 0
0.952 -0.153861 0
0.915951 -0.150672 0
0.902204 -0.142999 0
0.889609 -0.135048 0
0.848839 -0.130165 0
0.834993 -0.123682 0
0.822221 -0.116938 0
0.952 -0.153861 0
0.940908 -0.144465 0
0.931073 -0.135053 0
0.889609 -0.135048 0
0.878211 -0.126967 0
0.867962 -0.118848 0
0.822221 -0.116938 0
0.810575 -0.110057 0
0.800025 -0.103117 0
1.07672 -0.144334 0
1.05699 -0.149289 0
1.03645 -0.153106 0
1.00229 -0.120611 0
0.982811 -0.124832 0
0.962639 -0.1281 0
0.924713 -0.0971458 0
0.905374 -0.100779 0
0.885375 -0.103626 0
1.03645 -0.153106 0
1.01595 -0.155731 0
0.994989 -0.157108 0
0.962639 -0.1281 0
0.942514 -0.130372 0
0.921997 -0.131598 0
0.885375 -0.103626 0
0.865444 -0.105653 0
0.845161 -0.106818 0
0.924713 -0.0971458 0
0.905374 -0.100779 0
0.885375 -0.103626 0
0.841522 -0.0744592 0
0.822461 -0.0774886 0
0.802761 -0.0798855 0
0.746606 -0.0525222 0
0.728362 -0.0549733 0
0.709411 -0.0569452 0
0.885375 -0.103626 0
0.865444 -0.105653 0
0.845161 -0.106818 0
0.802761 -0.0798855 0
0.783096 -0.0816236 0
0.763088 -0.082669 0
0.709411 -0.0569452 0
0.690441 -0.0584194 0
0.67109 -0.0593653 0
0.994989 -0.157108 0
0.974592 -0.157266 0
0.95415 -0.156219 0
0.921997 -0.131598 0
0.901974 -0.131804 0
0.881929 -0.131001 0
0.845161 -0.106818 0
0.825323 -0.107143 0
0.805485 -0.106632 0
0.95415 -0.156219 0
0.934607 -0.154067 0
0.915408 -0.150857 0
0.881929 -0.131001 0
0.862678 -0.129275 0
0.843759 -0.126657 0
0.805485 -0.106632 0
0.786366 -0.105355 0
0.76758 -0.103336 0
0.845161 -0.106818 0
0.825323 -0.107143 0
0.805485 -0.106632 0
0.763088 -0.082669 0
0.743464 -0.0830416 0
0.723835 -0.0827411 0
0.67109 -0.0593653 0
0.652043 -0.0597993 0
0.632961 -0.0597177 0
0.805485 -0.106632 0
0.786366 -0.105355 0
0.76758 -0.103336 0
0.723835 -0.0827411 0
0.704852 -0.0818254 0
0.686187 -0.0803108 0
0.632961 -0.0597177 0
0.614441 -0.0591661 0
0.59621 -0.0581547 0
0.746606 -0.0525222 0
0.728362 -0.0549733 0
0.709411 -0.0569452 0
0.630115 -0.0325109 0
0.613851 -0.0342885 0
0.596785 -0.0357406 0
0.476577 -0.01515 0
0.464095 -0.0162169 0
0.450736 -0.0171112 0
0.709411 -0.0569452 0
0.690441 -0.0584194 0
0.67109 -0.0593653 0
0.596785 -0.0357406 0
0.579573 -0.0368511 0
0.561889 -0.0375976 0
0.450736 -0.0171112 0
0.437102 -0.0178279 0
0.42292 -0.0183458 0
0.476577 -0.01515 0
0.464095 -0.0162169 0
0.450736 -0.0171112 0
0.26975 -0.00416617 0
0.263127 -0.00450851 0
0.255731 -0.00479607 0
0 0 0
0 0 0
0 0 0
0.450736 -0.0171112 0
0.437102 -0.0178279 0
0.42292 -0.0183458 0
0.255731 -0.00479607 0
0.248099 -0.00503209 0
0.239926 -0.00519825 0
0 0 0
0 0 0
0 0 0
0.67109 -0.0593653 0
0.652043 -0.0597993 0
0.632961 -0.0597177 0
0.561889 -0.0375976 0
0.544382 -0.0379923 0
0.526759 -0.0380292 0
0.42292 -0.0183458 0
0.408753 -0.0186769 0