# vtk DataFile Version 3.0
#This file was generated by the deal.II library on 2025/1/3 at 12:27:48
ASCII
DATASET UNSTRUCTURED_GRID

POINTS 34560 double
1.1 1.1 0
1.03125 1.09531 0
0.9625 1.09063 0
1.09375 1.03125 0
1.02539 1.02686 0
0.957031 1.02246 0
1.0875 0.9625 0
1.01953 0.958398 0
0.951563 0.954297 0
0.9625 1.09063 0
0.89375 1.08594 0
0.825 1.08125 0
0.957031 1.02246 0
0.888672 1.01807 0
0.820312 1.01367 0
0.951563 0.954297 0
0.883594 0.950195 0
0.815625 0.946094 0
1.0875 0.9625 0
1.01953 0.958398 0
0.951563 0.954297 0
1.08125 0.89375 0
1.01367 0.889941 0
0.946094 0.886133 0
1.075 0.825 0
1.00781 0.821484 0
0.940625 0.817969 0
0.951563 0.954297 0
0.883594 0.950195 0
0.815625 0.946094 0
0.946094 0.886133 0
0.878516 0.882324 0
0.810938 0.878516 0
0.940625 0.817969 0
0.873438 0.814453 0
0.80625 0.810937 0
0.825 1.08125 0
0.75625 1.07656 0
0.6875 1.07187 0
0.820312 1.01367 0
0.751953 1.00928 0
0.683594 1.00488 0
0.815625 0.946094 0
0.747656 0.941992 0
0.679688 0.937891 0
0.6875 1.07187 0
0.61875 1.06719 0
0.55 1.0625 0
0.683594 1.00488 0
0.615234 1.00049 0
0.546875 0.996094 0
0.679688 0.937891 0
0.611719 0.933789 0
0.54375 0.929688 0
0.815625 0.946094 0
0.747656 0.941992 0
0.679688 0.937891 0
0.810938 0.878516 0
0.743359 0.874707 0
0.675781 0.870898 0
0.80625 0.810937 0
0.739063 0.807422 0
0.671875 0.803906 0
0.679688 0.937891 0
0.611719 0.933789 0
0.54375 0.929688 0
0.675781 0.870898 0
0.608203 0.86709 0
0.540625 0.863281 0
0.671875 0.803906 0
0.604688 0.800391 0
0.5375 0.796875 0
1.075 0.825 0
1.00781 0.821484 0
0.940625 0.817969 0
1.06875 0.75625 0
1.00195 0.753027 0
0.935156 0.749805 0
1.0625 0.6875 0
0.996094 0.68457 0
0.929688 0.681641 0
0.940625 0.817969 0
0.873438 0.814453 0
0.80625 0.810937 0
0.935156 0.749805 0
0.868359 0.746582 0
0.801563 0.743359 0
0.929688 0.681641 0
0.863281 0.678711 0
0.796875 0.675781 0
1.0625 0.6875 0
0.996094 0.68457 0
0.929688 0.681641 0
1.05625 0.61875 0
0.990234 0.616113 0
0.924219 0.613477 0
1.05 0.55 0
0.984375 0.547656 0
0.91875 0.545313 0
0.929688 0.681641 0
0.863281 0.678711 0
0.796875 0.675781 0
0.924219 0.613477 0
0.858203 0.61084 0
0.792188 0.608203 0
0.91875 0.545313 0
0.853125 0.542969 0
0.7875 0.540625 0
0.80625 0.810937 0
0.739063 0.807422 0
0.671875 0.803906 0
0.801563 0.743359 0
0.734766 0.740137 0
0.667969 0.736914 0
0.796875 0.675781 0
0.730469 0.672852 0
0.664062 0.669922 0
0.671875 0.803906 0
0.604688 0.800391 0
0.5375 0.796875 0
0.667969 0.736914 0
0.601172 0.733691 0
0.534375 0.730469 0
0.664062 0.669922 0
0.597656 0.666992 0
0.53125 0.664062 0
0.796875 0.675781 0
0.730469 0.672852 0
0.664062 0.669922 0
0.792188 0.608203 0
0.726172 0.605566 0
0.660156 0.60293 0
0.7875 0.540625 0
0.721875 0.538281 0
0.65625 0.535937 0
0.664062 0.669922 0
0.597656 0.666992 0
0.53125 0.664062 0
0.660156 0.60293 0
0.594141 0.600293 0
0.528125 0.597656 0
0.65625 0.535937 0
0.590625 0.533594 0
0.525 0.53125 0
0.55 1.0625 0
0.48125 1.05781 0
0.4125 1.05313 0
0.546875 0.996094 0
0.478516 0.991699 0
0.410156 0.987305 0
0.54375 0.929688 0
0.475781 0.925586 0
0.407813 0.921484 0
0.4125 1.05313 0
0.34375 1.04844 0
0.275 1.04375 0
0.410156 0.987305 0
0.341797 0.98291 0
0.273438 0.978516 0
0.407813 0.921484 0
0.339844 0.917383 0
0.271875 0.913281 0
0.54375 0.929688 0
0.475781 0.925586 0
0.407813 0.921484 0
0.540625 0.863281 0
0.473047 0.859473 0
0.405469 0.855664 0
0.5375 0.796875 0
0.470313 0.793359 0
0.403125 0.789844 0
0.407813 0.921484 0
0.339844 0.917383 0
0.271875 0.913281 0
0.405469 0.855664 0
0.337891 0.851855 0
0.270313 0.848047 0
0.403125 0.789844 0
0.335938 0.786328 0
0.26875 0.782813 0
0.275 1.04375 0
0.20625 1.03906 0
0.1375 1.03437 0
0.273438 0.978516 0
0.205078 0.974121 0
0.136719 0.969727 0
0.271875 0.913281 0
0.203906 0.90918 0
0.135938 0.905078 0
0.1375 1.03437 0
0.06875 1.02969 0
0 1.025 0
0.136719 0.969727 0
0.0683594 0.965332 0
0 0.960937 0
0.135938 0.905078 0
0.0679688 0.900977 0
0 0.896875 0
0.271875 0.913281 0
0.203906 0.90918 0
0.135938 0.905078 0
0.270313 0.848047 0
0.202734 0.844238 0
0.135156 0.84043 0
0.26875 0.782813 0
0.201563 0.779297 0
0.134375 0.775781 0
0.135938 0.905078 0
0.0679688 0.900977 0
0 0.896875 0
0.135156 0.84043 0
0.0675781 0.836621 0
0 0.832812 0
0.134375 0.775781 0
0.0671875 0.772266 0
0 0.76875 0
0.5375 0.796875 0
0.470313 0.793359 0
0.403125 0.789844 0
0.534375 0.730469 0
0.467578 0.727246 0
0.400781 0.724023 0
0.53125 0.664062 0
0.464844 0.661133 0
0.398438 0.658203 0
0.403125 0.789844 0
0.335938 0.786328 0
0.26875 0.782813 0
0.400781 0.724023 0
0.333984 0.720801 0
0.267188 0.717578 0
0.398438 0.658203 0
0.332031 0.655273 0
0.265625 0.652344 0
0.53125 0.664062 0
0.464844 0.661133 0
0.398438 0.658203 0
0.528125 0.597656 0
0.462109 0.59502 0
0.396094 0.592383 0
0.525 0.53125 0
0.459375 0.528906 0
0.39375 0.526563 0
0.398438 0.658203 0
0.332031 0.655273 0
0.265625 0.652344 0
0.396094 0.592383 0
0.330078 0.589746 0
0.264062 0.587109 0
0.39375 0.526563 0
0.328125 0.524219 0
0.2625 0.521875 0
0.26875 0.782813 0
0.201563 0.779297 0
0.134375 0.775781 0
0.267188 0.717578 0
0.200391 0.714355 0
0.133594 0.711133 0
0.265625 0.652344 0
0.199219 0.649414 0
0.132812 0.646484 0
0.134375 0.775781 0
0.0671875 0.772266 0
0 0.76875 0
0.133594 0.711133 0
0.0667969 0.70791 0
0 0.704687 0
0.132812 0.646484 0
0.0664062 0.643555 0
0 0.640625 0
0.265625 0.652344 0
0.199219 0.649414 0
0.132812 0.646484 0
0.264062 0.587109 0
0.198047 0.584473 0
0.132031 0.581836 0
0.2625 0.521875 0
0.196875 0.519531 0
0.13125 0.517187 0
0.132812 0.646484 0
0.0664062 0.643555 0
0 0.640625 0
0.132031 0.581836 0
0.0660156 0.579199 0
0 0.576562 0
0.13125 0.517187 0
0.065625 0.514844 0
0 0.5125 0
1.05 0.55 0
0.984375 0.547656 0
0.91875 0.545313 0
1.04375 0.48125 0
0.978516 0.479199 0
0.913281 0.477148 0
1.0375 0.4125 0
0.972656 0.410742 0
0.907813 0.408984 0
0.91875 0.545313 0
0.853125 0.542969 0
0.7875 0.540625 0
0.913281 0.477148 0
0.848047 0.475098 0
0.782813 0.473047 0
0.907813 0.408984 0
0.842969 0.407227 0
0.778125 0.405469 0
1.0375 0.4125 0
0.972656 0.410742 0
0.907813 0.408984 0
1.03125 0.34375 0
0.966797 0.342285 0
0.902344 0.34082 0
1.025 0.275 0
0.960937 0.273828 0
0.896875 0.272656 0
0.907813 0.408984 0
0.842969 0.407227 0
0.778125 0.405469 0
0.902344 0.34082 0
0.837891 0.339355 0
0.773438 0.337891 0
0.896875 0.272656 0
0.832812 0.271484 0
0.76875 0.270313 0
0.7875 0.540625 0
0.721875 0.538281 0
0.65625 0.535937 0
0.782813 0.473047 0
0.717578 0.470996 0
0.652344 0.468945 0
0.778125 0.405469 0
0.713281 0.403711 0
0.648438 0.401953 0
0.65625 0.535937 0
0.590625 0.533594 0
0.525 0.53125 0
0.652344 0.468945 0
0.587109 0.466895 0
0.521875 0.464844 0
0.648438 0.401953 0
0.583594 0.400195 0
0.51875 0.398438 0
0.778125 0.405469 0
0.713281 0.403711 0
0.648438 0.401953 0
0.773438 0.337891 0
0.708984 0.336426 0
0.644531 0.334961 0
0.76875 0.270313 0
0.704687 0.269141 0
0.640625 0.267969 0
0.648438 0.401953 0
0.583594 0.400195 0
0.51875 0.398438 0
0.644531 0.334961 0
0.580078 0.333496 0
0.515625 0.332031 0
0.640625 0.267969 0
0.576562 0.266797 0
0.5125 0.265625 0
1.025 0.275 0
0.960937 0.273828 0
0.896875 0.272656 0
1.01875 0.20625 0
0.955078 0.205371 0
0.891406 0.204492 0
1.0125 0.1375 0
0.949219 0.136914 0
0.885937 0.136328 0
0.896875 0.272656 0
0.832812 0.271484 0
0.76875 0.270313 0
0.891406 0.204492 0
0.827734 0.203613 0
0.764062 0.202734 0
0.885937 0.136328 0
0.822656 0.135742 0
0.759375 0.135156 0
1.0125 0.1375 0
0.949219 0.136914 0
0.885937 0.136328 0
1.00625 0.06875 0
0.943359 0.068457 0
0.880469 0.0681641 0
1 0 0
0.9375 0 0
0.875 0 0
0.885937 0.136328 0
0.822656 0.135742 0
0.759375 0.135156 0
0.880469 0.0681641 0
0.817578 0.0678711 0
0.754687 0.0675781 0
0.875 0 0
0.8125 0 0
0.75 0 0
0.76875 0.270313 0
0.704687 0.269141 0
0.640625 0.267969 0
0.764062 0.202734 0
0.700391 0.201855 0
0.636719 0.200977 0
0.759375 0.135156 0
0.696094 0.13457 0
0.632812 0.133984 0
0.640625 0.267969 0
0.576562 0.266797 0
0.5125 0.265625 0
0.636719 0.200977 0
0.573047 0.200098 0
0.509375 0.199219 0
0.632812 0.133984 0
0.569531 0.133398 0
0.50625 0.132812 0
0.759375 0.135156 0
0.696094 0.13457 0
0.632812 0.133984 0
0.754687 0.0675781 0
0.691797 0.0672852 0
0.628906 0.0669922 0
0.75 0 0
0.6875 0 0
0.625 0 0
0.632812 0.133984 0
0.569531 0.133398 0
0.50625 0.132812 0
0.628906 0.0669922 0
0.566016 0.0666992 0
0.503125 0.0664062 0
0.625 0 0
0.5625 0 0
0.5 0 0
0.525 0.53125 0
0.459375 0.528906 0
0.39375 0.526563 0
0.521875 0.464844 0
0.456641 0.462793 0
0.391406 0.460742 0
0.51875 0.398438 0
0.453906 0.39668 0
0.389063 0.394922 0
0.39375 0.526563 0
0.328125 0.524219 0
0.2625 0.521875 0
0.391406 0.460742 0
0.326172 0.458691 0
0.260938 0.456641 0
0.389063 0.394922 0
0.324219 0.393164 0
0.259375 0.391406 0
0.51875 0.398438 0
0.453906 0.39668 0
0.389063 0.394922 0
0.515625 0.332031 0
0.451172 0.330566 0
0.386719 0.329102 0
0.5125 0.265625 0
0.448437 0.264453 0
0.384375 0.263281 0
0.389063 0.394922 0
0.324219 0.393164 0
0.259375 0.391406 0
0.386719 0.329102 0
0.322266 0.327637 0
0.257812 0.326172 0
0.384375 0.263281 0
0.320312 0.262109 0
0.25625 0.260937 0
0.2625 0.521875 0
0.196875 0.519531 0
0.13125 0.517187 0
0.260938 0.456641 0
0.195703 0.45459 0
0.130469 0.452539 0
0.259375 0.391406 0
0.194531 0.389648 0
0.129688 0.387891 0
0.13125 0.517187 0
0.065625 0.514844 0
0 0.5125 0
0.130469 0.452539 0
0.0652344 0.450488 0
0 0.448437 0
0.129688 0.387891 0
0.0648438 0.386133 0
0 0.384375 0
0.259375 0.391406 0
0.194531 0.389648 0
0.129688 0.387891 0
0.257812 0.326172 0
0.193359 0.324707 0
0.128906 0.323242 0
0.25625 0.260937 0
0.192187 0.259766 0
0.128125 0.258594 0
0.129688 0.387891 0
0.0648438 0.386133 0
0 0.384375 0
0.128906 0.323242 0
0.0644531 0.321777 0
0 0.320312 0
0.128125 0.258594 0
0.0640625 0.257422 0
0 0.25625 0
0.5125 0.265625 0
0.448437 0.264453 0
0.384375 0.263281 0
0.509375 0.199219 0
0.445703 0.19834 0
0.382031 0.197461 0
0.50625 0.132812 0
0.442969 0.132227 0
0.379688 0.131641 0
0.384375 0.263281 0
0.320312 0.262109 0
0.25625 0.260937 0
0.382031 0.197461 0
0.318359 0.196582 0
0.254687 0.195703 0
[...]
POINT_DATA 34560
VECTORS v double
1.20467 -0.265276 0
1.19488 -0.237244 0
1.18659 -0.212262 0
1.17549 -0.252808 0
1.16325 -0.227717 0
1.15304 -0.204428 0
1.14162 -0.239143 0
1.12764 -0.216149 0
1.11537 -0.194623 0
1.18659 -0.212262 0
1.17942 -0.188825 0
1.17349 -0.167653 0
1.15304 -0.204428 0
1.14361 -0.182689 0
1.13592 -0.162714 0
1.11537 -0.194623 0
1.1042 -0.174481 0
1.09461 -0.155765 0
1.14162 -0.239143 0
1.12764 -0.216149 0
1.11537 -0.194623 0
1.10174 -0.222592 0
1.08605 -0.201936 0
1.07218 -0.182483 0
1.0557 -0.205863 0
1.0389 -0.187346 0
1.0238 -0.16977 0
1.11537 -0.194623 0
1.1042 -0.174481 0
1.09461 -0.155765 0
1.07218 -0.182483 0
1.05946 -0.164139 0
1.04837 -0.146996 0
1.0238 -0.16977 0
1.00996 -0.1531 0
0.997714 -0.137417 0
1.17349 -0.167653 0
1.16793 -0.148028 0
1.16331 -0.130128 0
1.13592 -0.162714 0
1.12843 -0.144109 0
1.12231 -0.127009 0
1.09461 -0.155765 0
1.08554 -0.1383 0
1.07783 -0.122105 0
1.16331 -0.130128 0
1.15866 -0.113544 0
1.15466 -0.0982555 0
1.12231 -0.127009 0
1.11611 -0.111049 0
1.11091 -0.0962756 0
1.07783 -0.122105 0
1.07031 -0.106953 0
1.06386 -0.0928376 0
1.09461 -0.155765 0
1.08554 -0.1383 0
1.07783 -0.122105 0
1.04837 -0.146996 0
1.03798 -0.130874 0
1.02898 -0.115843 0
0.997714 -0.137417 0
0.986287 -0.122599 0
0.976254 -0.108708 0
1.07783 -0.122105 0
1.07031 -0.106953 0
1.06386 -0.0928376 0
1.02898 -0.115843 0
1.02038 -0.101694 0
1.0129 -0.0884446 0
0.976254 -0.108708 0
0.96677 -0.0955795 0
0.958452 -0.0832313 0
1.0557 -0.205863 0
1.0389 -0.187346 0
1.0238 -0.16977 0
1.00426 -0.188024 0
0.986588 -0.171571 0
0.970575 -0.155865 0
0.947979 -0.169988 0
0.929679 -0.155438 0
0.912943 -0.141477 0
1.0238 -0.16977 0
1.00996 -0.1531 0
0.997714 -0.137417 0
0.970575 -0.155865 0
0.955838 -0.140879 0
0.942657 -0.126713 0
0.912943 -0.141477 0
0.897503 -0.128106 0
0.883574 -0.115412 0
0.947979 -0.169988 0
0.929679 -0.155438 0
0.912943 -0.141477 0
0.886651 -0.150804 0
0.86787 -0.13815 0
0.850623 -0.125971 0
0.820529 -0.131828 0
0.801497 -0.12094 0
0.783934 -0.110426 0
0.912943 -0.141477 0
0.897503 -0.128106 0
0.883574 -0.115412 0
0.850623 -0.125971 0
0.834666 -0.114262 0
0.820194 -0.103108 0
0.783934 -0.110426 0
0.767655 -0.100287 0
0.752819 -0.0906023 0
0.997714 -0.137417 0
0.986287 -0.122599 0
0.976254 -0.108708 0
0.942657 -0.126713 0
0.930396 -0.11327 0
0.91952 -0.100612 0
0.883574 -0.115412 0
0.870646 -0.103324 0
0.859088 -0.0919 0
0.976254 -0.108708 0
0.96677 -0.0955795 0
0.958452 -0.0832313 0
0.91952 -0.100612 0
0.909328 -0.0886037 0
0.900324 -0.0772673 0
0.859088 -0.0919 0
0.848328 -0.0810323 0
0.83877 -0.0707405 0
0.883574 -0.115412 0
0.870646 -0.103324 0
0.859088 -0.0919 0
0.820194 -0.103108 0
0.806773 -0.0924473 0
0.794716 -0.0823413 0
0.752819 -0.0906023 0
0.73907 -0.0813247 0
0.726666 -0.0725092 0
0.859088 -0.0919 0
0.848328 -0.0810323 0
0.83877 -0.0707405 0
0.794716 -0.0823413 0
0.783539 -0.0726974 0
0.773578 -0.0635403 0
0.726666 -0.0725092 0
0.715208 -0.0640821 0
0.704969 -0.0560645 0
1.15466 -0.0982555 0
1.15053 -0.0839706 0
1.14684 -0.0706038 0
1.11091 -0.0962756 0
1.10559 -0.082388 0
1.101 -0.0693604 0
1.06386 -0.0928376 0
1.05751 -0.0795323 0
1.05201 -0.0670013 0
1.14684 -0.0706038 0
1.14294 -0.0579237 0
1.13934 -0.0458263 0
1.101 -0.0693604 0
1.09627 -0.0569521 0
1.09206 -0.0450949 0
1.05201 -0.0670013 0
1.04655 -0.0550385 0
1.04174 -0.0435791 0
1.06386 -0.0928376 0
1.05751 -0.0795323 0
1.05201 -0.0670013 0
1.0129 -0.0884446 0
1.00573 -0.0758957 0
0.999474 -0.0640317 0
0.958452 -0.0832313 0
0.950595 -0.0715008 0
0.943711 -0.0603731 0
1.05201 -0.0670013 0
1.04655 -0.0550385 0
1.04174 -0.0435791 0
0.999474 -0.0640317 0
0.993444 -0.052668 0
0.98815 -0.0417484 0
0.943711 -0.0603731 0
0.937205 -0.0496891 0
0.93151 -0.0393996 0
1.13934 -0.0458263 0
1.13561 -0.034107 0
1.13209 -0.0226574 0
1.09206 -0.0450949 0
1.08782 -0.0335923 0
1.08399 -0.022346 0
1.04174 -0.0435791 0
1.03707 -0.0324449 0
1.03294 -0.0215562 0
1.13209 -0.0226574 0
1.12846 -0.0113072 0
1.125 0 0
1.08399 -0.022346 0
1.08016 -0.0111888 0
1.07666 0 0
1.03294 -0.0215562 0
1.02893 -0.0107604 0
1.02539 0 0
1.04174 -0.0435791 0
1.03707 -0.0324449 0
1.03294 -0.0215562 0
0.98815 -0.0417484 0
0.983155 -0.0311141 0
0.978795 -0.0207018 0
0.93151 -0.0393996 0
0.926248 -0.0293662 0
0.921705 -0.0195307 0
1.03294 -0.0215562 0
1.02893 -0.0107604 0
1.02539 0 0
0.978795 -0.0207018 0
0.974713 -0.0103637 0
0.971191 0 0
0.921705 -0.0195307 0
0.917559 -0.0097615 0
0.914062 0 0
0.958452 -0.0832313 0
0.950595 -0.0715008 0
0.943711 -0.0603731 0
0.900324 -0.0772673 0
0.891916 -0.0664631 0
0.884528 -0.056183 0
0.83877 -0.0707405 0
0.829924 -0.0609094 0
0.822133 -0.0515321 0
0.943711 -0.0603731 0
0.937205 -0.0496891 0
0.93151 -0.0393996 0
0.884528 -0.056183 0
0.877652 -0.0462878 0
0.871653 -0.0367371 0
0.822133 -0.0515321 0
0.814973 -0.0424896 0
0.808742 -0.0337452 0
0.83877 -0.0707405 0
0.829924 -0.0609094 0
0.822133 -0.0515321 0
0.773578 -0.0635403 0
0.764419 -0.05477 0
0.756348 -0.0463852 0
0.704969 -0.0560645 0
0.695607 -0.0483742 0
0.687352 -0.0410094 0
0.822133 -0.0515321 0
0.814973 -0.0424896 0
0.808742 -0.0337452 0
0.756348 -0.0463852 0
0.749002 -0.0382808 0
0.742632 -0.0304284 0
0.687352 -0.0410094 0
0.679903 -0.0338811 0
0.673465 -0.0269631 0
0.93151 -0.0393996 0
0.926248 -0.0293662 0
0.921705 -0.0195307 0
0.871653 -0.0367371 0
0.866204 -0.0274051 0
0.861548 -0.0182435 0
0.808742 -0.0337452 0
0.803165 -0.0251888 0
0.798443 -0.0167774 0
0.921705 -0.0195307 0
0.917559 -0.0097615 0
0.914062 0 0
0.861548 -0.0182435 0
0.85741 -0.00913128 0
0.854004 0 0
0.798443 -0.0167774 0
0.794331 -0.00840166 0
0.791016 0 0
0.808742 -0.0337452 0
0.803165 -0.0251888 0
0.798443 -0.0167774 0
0.742632 -0.0304284 0
0.737 -0.0227285 0
0.732279 -0.0151467 0
0.673465 -0.0269631 0
0.667836 -0.0201688 0
0.663163 -0.0134662 0
0.798443 -0.0167774 0
0.794331 -0.00840166 0
0.791016 0 0
0.732279 -0.0151467 0
0.728257 -0.00758439 0
0.725098 0 0
0.663163 -0.0134662 0
0.659254 -0.00676697 0
0.65625 0 0
0.820529 -0.131828 0
0.801497 -0.12094 0
0.783934 -0.110426 0
0.749788 -0.112132 0
0.730612 -0.102961 0
0.712876 -0.094092 0
0.674344 -0.0927311 0
0.655201 -0.0851959 0
0.637452 -0.0779017 0
0.783934 -0.110426 0
0.767655 -0.100287 0
0.752819 -0.0906023 0
0.712876 -0.094092 0
0.696402 -0.0855247 0
0.68135 -0.0773312 0
0.637452 -0.0779017 0
0.620955 -0.070849 0
0.605848 -0.0641007 0
0.674344 -0.0927311 0
0.655201 -0.0851959 0
0.637452 -0.0779017 0
0.593839 -0.0728275 0
0.57488 -0.0668965 0
0.557307 -0.0611647 0
0.506771 -0.0535595 0
0.488397 -0.0491791 0
0.471371 -0.0449555 0
0.637452 -0.0779017 0
0.620955 -0.070849 0
0.605848 -0.0641007 0
0.557307 -0.0611647 0
0.540963 -0.0556238 0
0.525994 -0.0503298 0
0.471371 -0.0449555 0
0.45555 -0.0408767 0
0.44107 -0.0369907 0
0.752819 -0.0906023 0
0.73907 -0.0813247 0
0.726666 -0.0725092 0
0.68135 -0.0773312 0
0.667406 -0.0694702 0
0.654798 -0.0619919 0
0.605848 -0.0641007 0
0.591867 -0.0576221 0
0.579206 -0.0514572 0
0.726666 -0.0725092 0
0.715208 -0.0640821 0
0.704969 -0.0560645 0
0.654798 -0.0619919 0
0.643184 -0.0548327 0
0.632795 -0.0480133 0
0.579206 -0.0514572 0
0.567574 -0.0455531 0
0.557164 -0.0399269 0
0.605848 -0.0641007 0
0.591867 -0.0576221 0
0.579206 -0.0514572 0
0.525994 -0.0503298 0
0.512156 -0.0452491 0
0.499623 -0.0404206 0
0.44107 -0.0369907 0
0.427704 -0.0332659 0
0.415608 -0.0297352 0
0.579206 -0.0514572 0
0.567574 -0.0455531 0
0.557164 -0.0399269 0
0.499623 -0.0404206 0
0.488139 -0.0357977 0
0.477871 -0.0313953 0
0.415608 -0.0297352 0
0.404553 -0.0263586 0
0.39468 -0.0231496 0
0.506771 -0.0535595 0
0.488397 -0.0491791 0
0.471371 -0.0449555 0
0.41047 -0.0346801 0
0.393351 -0.0317883 0
0.377548 -0.0290179 0
0.299289 -0.0179255 0
0.28493 -0.0164201 0
0.271719 -0.0149907 0
0.471371 -0.0449555 0
0.45555 -0.0408767 0
0.44107 -0.0369907 0
0.377548 -0.0290179 0
0.362884 -0.0263494 0
0.349503 -0.0238225 0
0.271719 -0.0149907 0
0.259496 -0.013611 0
0.248381 -0.0123151 0
0.299289 -0.0179255 0
0.28493 -0.0164201 0
0.271719 -0.0149907 0
0.165365 -0.00517473 0
0.156284 -0.00471519 0
0.148016 -0.00429535 0
0 0 0
0 0 0
0 0 0
0.271719 -0.0149907 0
0.259496 -0.013611 0
0.248381 -0.0123151 0
0.148016 -0.00429535 0
0.14035 -0.00388221 0
0.133438 -0.00350839 0
0 0 0
0 0 0
0 0 0
0.44107 -0.0369907 0
0.427704 -0.0332659 0
0.415608 -0.0297352 0
0.349503 -0.0238225 0
0.337177 -0.0214067 0
0.326047 -0.0191287 0
0.248381 -0.0123151 0
0.238167 -0.0110746 0
0.228968 -0.00991319 0
0.415608 -0.0297352 0
0.404553 -0.0263586 0
0.39468 -0.0231496 0
0.326047 -0.0191287 0
0.315898 -0.0169542 0
0.306854 -0.0148963 0
0.228968 -0.00991319 0
0.220598 -0.00880408 0
0.213151 -0.00776142 0
0.248381 -0.0123151 0
0.238167 -0.0110746 0
0.228968 -0.00991319 0
0.133438 -0.00350839 0
0.127073 -0.00314316 0
0.121381 -0.00281213 0
0 0 0
0 0 0
0 0 0
0.228968 -0.00991319 0
0.220598 -0.00880408 0
0.213151 -0.00776142 0
0.121381 -0.00281213 0
0.116183 -0.00248941 0
0.111586 -0.00219493 0
0 0 0
0 0 0
0 0 0
0.704969 -0.0560645 0
0.695607 -0.0483742 0
0.687352 -0.0410094 0
0.632795 -0.0480133 0
0.623338 -0.0414622 0
0.615008 -0.0351802 0
0.557164 -0.0399269 0
0.547728 -0.034519 0
0.539426 -0.0293297 0
0.687352 -0.0410094 0
0.679903 -0.0338811 0
0.673465 -0.0269631 0
0.615008 -0.0351802 0
0.607544 -0.0290886 0
0.601121 -0.0231668 0
0.539426 -0.0293297 0
0.532037 -0.0242927 0
0.525706 -0.0193879 0
0.557164 -0.0399269 0
0.547728 -0.034519 0
0.539426 -0.0293297 0
0.477871 -0.0313953 0
0.468596 -0.0271612 0
0.460455 -0.0230976 0
0.39468 -0.0231496 0
0.38579 -0.0200645 0
0.378004 -0.0171047 0
0.539426 -0.0293297 0
0.532037 -0.0242927 0
0.525706 -0.0193879 0
0.460455 -0.0230976 0
0.453252 -0.0191467 0
0.447113 -0.0152917 0
0.378004 -0.0171047 0
0.371152 -0.0142222 0
0.365342 -0.0114032 0
0.673465 -0.0269631 0
0.667836 -0.0201688 0
0.663163 -0.0134662 0
0.601121 -0.0231668 0
0.595563 -0.0173373 0
0.590998 -0.0115757 0
0.525706 -0.0193879 0
0.52028 -0.0145494 0
0.515872 -0.00975461 0
0.663163 -0.0134662 0
0.659254 -0.00676697 0
0.65625 0 0
0.590998 -0.0115757 0
0.587257 -0.00580234 0
0.584473 0 0
0.515872 -0.00975461 0
0.512329 -0.00493428 0
0.509766 0 0
0.525706 -0.0193879 0
0.52028 -0.0145494 0
0.515872 -0.00975461 0
0.447113 -0.0152917 0
0.441895 -0.0114748 0
0.437706 -0.0076855 0
0.365342 -0.0114032 0
0.360442 -0.00860058 0
0.356551 -0.00580053 0
0.515872 -0.00975461 0
0.512329 -0.00493428 0
0.509766 0 0
0.437706 -0.0076855 0
0.434413 -0.00386172 0
0.432129 0 0
0.356551 -0.00580053 0
0.353557 -0.00296692 0
0.351562 0 0
0.39468 -0.0231496 0
0.38579 -0.0200645 0
0.378004 -0.0171047 0
0.306854 -0.0148963 0
0.298729 -0.0129189 0
0.291632 -0.0110243 0
0.213151 -0.00776142 0
0.20647 -0.00675909 0
0.200642 -0.00580129 0
0.378004 -0.0171047 0
0.371152 -0.0142222 0
0.365342 -0.0114032 0
0.291632 -0.0110243 0
0.285408 -0.00917409 0
0.280161 -0.00735983 0
0.200642 -0.00580129 0
0.195538 -0.00486227 0
0.19125 -0.00394246 0
0.213151 -0.00776142 0
0.20647 -0.00675909 0
0.200642 -0.00580129 0
0.111586 -0.00219493 0
0.107442 -0.00190758 0
0.103848 -0.00163769 0
0 0 0
0 0 0
0 0 0
0.200642 -0.00580129 0
0.195538 -0.00486227 0
0.19125 -0.00394246 0
0.103848 -0.00163769 0
0.100677 -0.00136493 0
0.0980248 -0.00110279 0
0 0 0
0 0 0
0 0 0
0.365342 -0.0114032 0
0.360442 -0.00860058 0
0.356551 -0.00580053 0
0.280161 -0.00735983 0
0.275764 -0.00553997 0
0.272321 -0.00370995 0
0.19125 -0.00394246 0
0.187679 -0.00301429 0
0.184924 -0.00205708 0
0.356551 -0.00580053 0
0.353557 -0.00296692 0
0.351562 0 0
0.272321 -0.00370995 0
0.269717 -0.00183929 0
0.268066 0 0
0.184924 -0.00205708 0
0.182879 -0.00107265 0
0.181641 0 0
0.19125 -0.00394246 0
0.187679 -0.00301429 0
0.184924 -0.00205708 0
0.0980248 -0.00110279 0
0.0958016 -0.000838697 0
0.0941533 -0.000555724 0
0 0 0
0 0 0
0 0 0
0.184924 -0.00205708 0
0.182879 -0.00107265 0
0.181641 0 0
0.0941533 -0.000555724 0
0.0929237 -0.0002263 0
0.0922852 0 0
0 0 0
0 0 0
0 0 0
1.61767 -0.51183 0
1.5798 -0.518185 0
1.54054 -0.520349 0
1.57386 -0.465843 0
1.53792 -0.471428 0
1.50109 -0.473526 0
1.52498 -0.422993 0
1.49155 -0.428155 0
1.45745 -0.43037 0
1.54054 -0.520349 0
1.50181 -0.518036 0
1.46271 -0.511469 0
1.50109 -0.473526 0
1.46469 -0.472054 0
1.42815 -0.466946 0
1.45745 -0.43037 0
1.42387 -0.429633 0
1.39022 -0.42577 0
1.52498 -0.422993 0
1.49155 -0.428155 0
1.45745 -0.43037 0
1.4765 -0.384108 0
1.4451 -0.388033 0
1.41319 -0.389526 0
1.42373 -0.345598 0
1.39323 -0.348949 0
1.36238 -0.350236 0
1.45745 -0.43037 0
1.42387 -0.429633 0
1.39022 -0.42577 0
1.41319 -0.389526 0
1.38162 -0.388559 0
1.34998 -0.385032 0
1.36238 -0.350236 0
1.33193 -0.349469 0
1.30152 -0.34655 0
1.46271 -0.511469 0
1.42651 -0.501027 0
1.39097 -0.486544 0
1.42815 -0.466946 0
1.39409 -0.458404 0
1.36072 -0.4468 0
1.39022 -0.42577 0
1.35856 -0.419058 0
1.32759 -0.409565 0
1.39097 -0.486544 0
1.35949 -0.469443 0
1.32943 -0.44951 0
1.36072 -0.4468 0
1.33072 -0.432613 0
1.3021 -0.416067 0
1.32759 -0.409565 0
1.29928 -0.397686 0
1.27222 -0.383609 0
1.39022 -0.42577 0
1.35856 -0.419058 0
1.32759 -0.409565 0
1.34998 -0.385032 0
1.31986 -0.379097 0
1.29028 -0.370846 0
1.30152 -0.34655 0
1.27245 -0.341616 0
1.24396 -0.334732 0
1.32759 -0.409565 0
1.29928 -0.397686 0
1.27222 -0.383609 0
1.29028 -0.370846 0
1.26282 -0.360636 0
1.23644 -0.348588 0
1.24396 -0.334732 0
1.21733 -0.32615 0
1.19174 -0.315961 0
1.42373 -0.345598 0
1.39323 -0.348949 0
1.36238 -0.350236 0
1.36613 -0.30951 0
1.33663 -0.31259 0
1.30686 -0.313841 0
1.30658 -0.27435 0
1.27792 -0.277197 0
1.24903 -0.278453 0
1.36238 -0.350236 0
1.33193 -0.349469 0
1.30152 -0.34655 0
1.30686 -0.313841 0
1.27757 -0.31328 0
1.24839 -0.310849 0
1.24903 -0.278453 0
1.22059 -0.278136 0
1.19227 -0.276194 0
1.30658 -0.27435 0
1.27792 -0.277197 0
1.24903 -0.278453 0
1.24445 -0.240017 0
1.21632 -0.24253 0
1.18798 -0.243664 0
1.17842 -0.206557 0
1.15063 -0.208862 0
1.12264 -0.209988 0
1.24903 -0.278453 0
1.22059 -0.278136 0
1.19227 -0.276194 0
1.18798 -0.243664 0
1.16009 -0.243453 0
1.13231 -0.241853 0
1.12264 -0.209988 0
1.09512 -0.209974 0
1.06772 -0.208773 0
1.30152 -0.34655 0
1.27245 -0.341616 0
1.24396 -0.334732 0
1.24839 -0.310849 0
1.22042 -0.30666 0
1.193 -0.300764 0
1.19227 -0.276194 0
1.16501 -0.272727 0
1.13826 -0.26777 0
1.24396 -0.334732 0
1.21733 -0.32615 0
1.19174 -0.315961 0
1.193 -0.300764 0
1.16718 -0.293369 0
1.14232 -0.284557 0
1.13826 -0.26777 0
1.1129 -0.261503 0
1.08843 -0.25399 0
1.19227 -0.276194 0
1.16501 -0.272727 0
1.13826 -0.26777 0
1.13231 -0.241853 0
1.10548 -0.238964 0
1.07914 -0.234799 0
1.06772 -0.208773 0
1.04121 -0.206473 0
1.01518 -0.203079 0
1.13826 -0.26777 0
1.1129 -0.261503 0
1.08843 -0.25399 0
1.07914 -0.234799 0
1.05405 -0.229519 0
1.0298 -0.223156 0
1.01518 -0.203079 0
0.990285 -0.198722 0
0.966192 -0.193428 0
1.32943 -0.44951 0
1.30394 -0.428188 0
1.28072 -0.404938 0
1.3021 -0.416067 0
1.27743 -0.397715 0
1.2548 -0.378038 0
1.27222 -0.383609 0
1.24829 -0.367915 0
1.22612 -0.350854 0
1.28072 -0.404938 0
1.26126 -0.381472 0
1.24425 -0.357422 0
1.2548 -0.378038 0
1.23546 -0.35764 0
1.21839 -0.336555 0
1.22612 -0.350854 0
1.20667 -0.332881 0
1.18921 -0.314186 0
1.27222 -0.383609 0
1.24829 -0.367915 0
1.22612 -0.350854 0
1.23644 -0.348588 0
1.21268 -0.33514 0
1.19046 -0.320433 0
1.19174 -0.315961 0
1.16843 -0.304485 0
1.1466 -0.291884 0
1.22612 -0.350854 0
1.20667 -0.332881 0
1.18921 -0.314186 0
1.19046 -0.320433 0
1.17067 -0.304906 0
1.1527 -0.288722 0
1.1466 -0.291884 0
1.1269 -0.27849 0
1.10888 -0.264428 0
1.24425 -0.357422 0
1.23069 -0.333694 0
1.21979 -0.309951 0
1.21839 -0.336555 0
1.20436 -0.315279 0
1.19269 -0.29409 0
1.18921 -0.314186 0
1.17429 -0.29524 0
1.16149 -0.276227 0
1.21979 -0.309951 0
1.21116 -0.287129 0
1.20467 -0.265276 0
1.19269 -0.29409 0
1.183 -0.273277 0
1.17549 -0.252808 0
1.16149 -0.276227 0
1.15056 -0.257447 0
1.14162 -0.239143 0
1.18921 -0.314186 0
1.17429 -0.29524 0
1.16149 -0.276227 0
1.1527 -0.288722 0
1.13711 -0.272239 0
1.12351 -0.255576 0
1.10888 -0.264428 0
1.093 -0.249974 0
1.07894 -0.235272 0
1.16149 -0.276227 0
1.15056 -0.257447 0
1.14162 -0.239143 0
1.12351 -0.255576 0
1.11168 -0.238987 0
1.10174 -0.222592 0
1.07894 -0.235272 0
1.06645 -0.22052 0
1.0557 -0.205863 0
1.19174 -0.315961 0
1.16843 -0.304485 0
1.1466 -0.291884 0
1.14232 -0.284557 0
1.11943 -0.274609 0
1.09785 -0.26365 0
1.08843 -0.25399 0
1.06567 -0.245462 0
1.04413 -0.236027 0
1.1466 -0.291884 0
1.1269 -0.27849 0
1.10888 -0.264428 0
1.09785 -0.26365 0
1.07812 -0.251961 0
1.05992 -0.239638 0
1.04413 -0.236027 0
1.02425 -0.225917 0
1.00579 -0.215224 0
1.08843 -0.25399 0
1.06567 -0.245462 0
1.04413 -0.236027 0
1.0298 -0.223156 0
1.00708 -0.215914 0
0.98551 -0.207868 0
0.966192 -0.193428 0
0.943474 -0.187359 0
0.921845 -0.180583 0
1.04413 -0.236027 0
1.02425 -0.225917 0
1.00579 -0.215224 0
0.98551 -0.207868 0
0.965443 -0.199217 0
0.946718 -0.190032 0
0.921845 -0.180583 0
0.901581 -0.17326 0
0.882584 -0.165453 0
1.10888 -0.264428 0
1.093 -0.249974 0
1.07894 -0.235272 0
1.05992 -0.239638 0
1.04361 -0.22694 0
1.02897 -0.214005 0
1.00579 -0.215224 0
0.989074 -0.204166 0
0.973922 -0.19286 0
1.07894 -0.235272 0
1.06645 -0.22052 0
1.0557 -0.205863 0
1.02897 -0.214005 0
1.0158 -0.20101 0
1.00426 -0.188024 0
0.973922 -0.19286 0
0.960179 -0.18144 0
0.947979 -0.169988 0
1.00579 -0.215224 0
0.989074 -0.204166 0
0.973922 -0.19286 0
0.946718 -0.190032 0
0.929577 -0.180494 0
0.913907 -0.170702 0
0.882584 -0.165453 0
0.86504 -0.157312 0
0.848895 -0.148932 0
0.973922 -0.19286 0
0.960179 -0.18144 0
0.947979 -0.169988 0
0.913907 -0.170702 0
0.899553 -0.16078 0
0.886651 -0.150804 0
0.848895 -0.148932 0
0.834008 -0.140416 0
0.820529 -0.131828 0
1.17842 -0.206557 0
1.15063 -0.208862 0
1.12264 -0.209988 0
1.10941 -0.174306 0
1.08184 -0.176375 0
1.0541 -0.177434 0
1.0366 -0.142456 0
1.00915 -0.144353 0
0.981508 -0.145397 0
1.12264 -0.209988 0
1.09512 -0.209974 0
1.06772 -0.208773 0
1.0541 -0.177434 0
1.02681 -0.177515 0
0.999654 -0.176582 0
0.981508 -0.145397 0
0.954318 -0.145623 0
0.927244 -0.144996 0
1.0366 -0.142456 0
1.00915 -0.144353 0
0.981508 -0.145397 0
0.957868 -0.111167 0
0.930628 -0.112853 0
0.90317 -0.113837 0
0.866625 -0.0807095 0
0.840094 -0.0821752 0
0.813259 -0.0830923 0
0.981508 -0.145397 0
0.954318 -0.145623 0
0.927244 -0.144996 0
0.90317 -0.113837 0
0.876127 -0.114152 0
0.849178 -0.113768 0
0.813259 -0.0830923 0
0.786786 -0.0834934 0
0.760356 -0.0833495 0
1.06772 -0.208773 0
1.04121 -0.206473 0
1.01518 -0.203079 0
0.999654 -0.176582 0
0.973313 -0.174713 0
0.947432 -0.171914 0
0.927244 -0.144996 0
0.90093 -0.143588 0
0.875062 -0.141402 0
1.01518 -0.203079 0
0.990285 -0.198722 0
0.966192 -0.193428 0
0.947432 -0.171914 0
0.92258 -0.1683 0
0.898493 -0.163888 0
0.875062 -0.141402 0
0.850151 -0.138534 0
0.825981 -0.134997 0
0.927244 -0.144996 0
0.90093 -0.143588 0
0.875062 -0.141402 0
0.849178 -0.113768 0
0.822928 -0.112753 0
0.7971 -0.1111 0
0.760356 -0.0833495 0
0.734549 -0.0827183 0
0.709124 -0.0815914 0
0.875062 -0.141402 0
0.850151 -0.138534 0
0.825981 -0.134997 0
0.7971 -0.1111 0
0.772159 -0.108896 0
0.747933 -0.106145 0
0.709124 -0.0815914 0
0.68451 -0.0800401 0
0.660577 -0.0780635 0
0.866625 -0.0807095 0
0.840094 -0.0821752 0
0.813259 -0.0830923 0
0.751679 -0.0519608 0
0.727069 -0.0531065 0
0.70204 -0.0538604 0
0.589398 -0.0258294 0
0.569128 -0.0265915 0
0.548307 -0.0271253 0
0.813259 -0.0830923 0
0.786786 -0.0834934 0
0.760356 -0.0833495 0
0.70204 -0.0538604 0
0.677235 -0.0542511 0
0.652376 -0.0542521 0
0.548307 -0.0271253 0
0.527533 -0.027461 0
0.506585 -0.0275718 0
0.589398 -0.0258294 0
0.569128 -0.0265915 0
0.548307 -0.0271253 0
0.348922 -0.0075625 0
0.336676 -0.00783167 0
0.323885 -0.0080105 0
0 0 0
0 0 0
0 0 0
0.548307 -0.0271253 0
0.527533 -0.027461 0
0.506585 -0.0275718 0
0.323885 -0.0080105 0
0.311025 -0.00813091 0
0.297913 -0.00816187 0
0 0 0
0 0 0
0 0 0
0.760356 -0.0833495 0
0.734549 -0.0827183 0
0.709124 -0.0815914 0
0.652376 -0.0542521 0
0.628008 -0.0539118 0
0.603941 -0.0532185 0
0.506585 -0.0275718 0
0.485941 -0.0274986 0
0.465476 -0.027221 0
0.709124 -0.0815914 0
0.68451 -0.0800401 0
0.660577 -0.0780635 0