# vtk DataFile Version 3.0
#This file was generated by the deal.II library on 2025/1/3 at 17:06:12
ASCII
DATASET UNSTRUCTURED_GRID

POINTS 34560 double
1.1 1.1 0
1.03125 1.09531 0
0.9625 1.09063 0
1.09375 1.03125 0
1.02539 1.02686 0
0.957031 1.02246 0
1.0875 0.9625 0
1.01953 0.958398 0
0.951563 0.954297 0
0.9625 1.09063 0
0.89375 1.08594 0
0.825 1.08125 0
0.957031 1.02246 0
0.888672 1.01807 0
0.820312 1.01367 0
0.951563 0.954297 0
0.883594 0.950195 0
0.815625 0.946094 0
1.0875 0.9625 0
1.01953 0.958398 0
0.951563 0.954297 0
1.08125 0.89375 0
1.01367 0.889941 0
0.946094 0.886133 0
1.075 0.825 0
1.00781 0.821484 0
0.940625 0.817969 0
0.951563 0.954297 0
0.883594 0.950195 0
0.815625 0.946094 0
0.946094 0.886133 0
0.878516 0.882324 0
0.810938 0.878516 0
0.940625 0.817969 0
0.873438 0.814453 0
0.80625 0.810937 0
0.825 1.08125 0
0.75625 1.07656 0
0.6875 1.07187 0
0.820312 1.01367 0
0.751953 1.00928 0
0.683594 1.00488 0
0.815625 0.946094 0
0.747656 0.941992 0
0.679688 0.937891 0
0.6875 1.07187 0
0.61875 1.06719 0
0.55 1.0625 0
0.683594 1.00488 0
0.615234 1.00049 0
0.546875 0.996094 0
0.679688 0.937891 0
0.611719 0.933789 0
0.54375 0.929688 0
0.815625 0.946094 0
0.747656 0.941992 0
0.679688 0.937891 0
0.810938 0.878516 0
0.743359 0.874707 0
0.675781 0.870898 0
0.80625 0.810937 0
0.739063 0.807422 0
0.671875 0.803906 0
0.679688 0.937891 0
0.611719 0.933789 0
0.54375 0.929688 0
0.675781 0.870898 0
0.608203 0.86709 0
0.540625 0.863281 0
0.671875 0.803906 0
0.604688 0.800391 0
0.5375 0.796875 0
1.075 0.825 0
1.00781 0.821484 0
0.940625 0.817969 0
1.06875 0.75625 0
1.00195 0.753027 0
0.935156 0.749805 0
1.0625 0.6875 0
0.996094 0.68457 0
0.929688 0.681641 0
0.940625 0.817969 0
0.873438 0.814453 0
0.80625 0.810937 0
0.935156 0.749805 0
0.868359 0.746582 0
0.801563 0.743359 0
0.929688 0.681641 0
0.863281 0.678711 0
0.796875 0.675781 0
1.0625 0.6875 0
0.996094 0.68457 0
0.929688 0.681641 0
1.05625 0.61875 0
0.990234 0.616113 0
0.924219 0.613477 0
1.05 0.55 0
0.984375 0.547656 0
0.91875 0.545313 0
0.929688 0.681641 0
0.863281 0.678711 0
0.796875 0.675781 0
0.924219 0.613477 0
0.858203 0.61084 0
0.792188 0.608203 0
0.91875 0.545313 0
0.853125 0.542969 0
0.7875 0.540625 0
0.80625 0.810937 0
0.739063 0.807422 0
0.671875 0.803906 0
0.801563 0.743359 0
0.734766 0.740137 0
0.667969 0.736914 0
0.796875 0.675781 0
0.730469 0.672852 0
0.664062 0.669922 0
0.671875 0.803906 0
0.604688 0.800391 0
0.5375 0.796875 0
0.667969 0.736914 0
0.601172 0.733691 0
0.534375 0.730469 0
0.664062 0.669922 0
0.597656 0.666992 0
0.53125 0.664062 0
0.796875 0.675781 0
0.730469 0.672852 0
0.664062 0.669922 0
0.792188 0.608203 0
0.726172 0.605566 0
0.660156 0.60293 0
0.7875 0.540625 0
0.721875 0.538281 0
0.65625 0.535937 0
0.664062 0.669922 0
0.597656 0.666992 0
0.53125 0.664062 0
0.660156 0.60293 0
0.594141 0.600293 0
0.528125 0.597656 0
0.65625 0.535937 0
0.590625 0.533594 0
0.525 0.53125 0
0.55 1.0625 0
0.48125 1.05781 0
0.4125 1.05313 0
0.546875 0.996094 0
0.478516 0.991699 0
0.410156 0.987305 0
0.54375 0.929688 0
0.475781 0.925586 0
0.407813 0.921484 0
0.4125 1.05313 0
0.34375 1.04844 0
0.275 1.04375 0
0.410156 0.987305 0
0.341797 0.98291 0
0.273438 0.978516 0
0.407813 0.921484 0
0.339844 0.917383 0
0.271875 0.913281 0
0.54375 0.929688 0
0.475781 0.925586 0
0.407813 0.921484 0
0.540625 0.863281 0
0.473047 0.859473 0
0.405469 0.855664 0
0.5375 0.796875 0
0.470313 0.793359 0
0.403125 0.789844 0
0.407813 0.921484 0
0.339844 0.917383 0
0.271875 0.913281 0
0.405469 0.855664 0
0.337891 0.851855 0
0.270313 0.848047 0
0.403125 0.789844 0
0.335938 0.786328 0
0.26875 0.782813 0
0.275 1.04375 0
0.20625 1.03906 0
0.1375 1.03437 0
0.273438 0.978516 0
0.205078 0.974121 0
0.136719 0.969727 0
0.271875 0.913281 0
0.203906 0.90918 0
0.135938 0.905078 0
0.1375 1.03437 0
0.06875 1.02969 0
0 1.025 0
0.136719 0.969727 0
0.0683594 0.965332 0
0 0.960937 0
0.135938 0.905078 0
0.0679688 0.900977 0
0 0.896875 0
0.271875 0.913281 0
0.203906 0.90918 0
0.135938 0.905078 0
0.270313 0.848047 0
0.202734 0.844238 0
0.135156 0.84043 0
0.26875 0.782813 0
0.201563 0.779297 0
0.134375 0.775781 0
0.135938 0.905078 0
0.0679688 0.900977 0
0 0.896875 0
0.135156 0.84043 0
0.0675781 0.836621 0
0 0.832812 0
0.134375 0.775781 0
0.0671875 0.772266 0
0 0.76875 0
0.5375 0.796875 0
0.470313 0.793359 0
0.403125 0.789844 0
0.534375 0.730469 0
0.467578 0.727246 0
0.400781 0.724023 0
0.53125 0.664062 0
0.464844 0.661133 0
0.398438 0.658203 0
0.403125 0.789844 0
0.335938 0.786328 0
0.26875 0.782813 0
0.400781 0.724023 0
0.333984 0.720801 0
0.267188 0.717578 0
0.398438 0.658203 0
0.332031 0.655273 0
0.265625 0.652344 0
0.53125 0.664062 0
0.464844 0.661133 0
0.398438 0.658203 0
0.528125 0.597656 0
0.462109 0.59502 0
0.396094 0.592383 0
0.525 0.53125 0
0.459375 0.528906 0
0.39375 0.526563 0
0.398438 0.658203 0
0.332031 0.655273 0
0.265625 0.652344 0
0.396094 0.592383 0
0.330078 0.589746 0
0.264062 0.587109 0
0.39375 0.526563 0
0.328125 0.524219 0
0.2625 0.521875 0
0.26875 0.782813 0
0.201563 0.779297 0
0.134375 0.775781 0
0.267188 0.717578 0
0.200391 0.714355 0
0.133594 0.711133 0
0.265625 0.652344 0
0.199219 0.649414 0
0.132812 0.646484 0
0.134375 0.775781 0
0.0671875 0.772266 0
0 0.76875 0
0.133594 0.711133 0
0.0667969 0.70791 0
0 0.704687 0
0.132812 0.646484 0
0.0664062 0.643555 0
0 0.640625 0
0.265625 0.652344 0
0.199219 0.649414 0
0.132812 0.646484 0
0.264062 0.587109 0
0.198047 0.584473 0
0.132031 0.581836 0
0.2625 0.521875 0
0.196875 0.519531 0
0.13125 0.517187 0
0.132812 0.646484 0
0.0664062 0.643555 0
0 0.640625 0
0.132031 0.581836 0
0.0660156 0.579199 0
0 0.576562 0
0.13125 0.517187 0
0.065625 0.514844 0
0 0.5125 0
1.05 0.55 0
0.984375 0.547656 0
0.91875 0.545313 0
1.04375 0.48125 0
0.978516 0.479199 0
0.913281 0.477148 0
1.0375 0.4125 0
0.972656 0.410742 0
0.907813 0.408984 0
0.91875 0.545313 0
0.853125 0.542969 0
0.7875 0.540625 0
0.913281 0.477148 0
0.848047 0.475098 0
0.782813 0.473047 0
0.907813 0.408984 0
0.842969 0.407227 0
0.778125 0.405469 0
1.0375 0.4125 0
0.972656 0.410742 0
0.907813 0.408984 0
1.03125 0.34375 0
0.966797 0.342285 0
0.902344 0.34082 0
1.025 0.275 0
0.960937 0.273828 0
0.896875 0.272656 0
0.907813 0.408984 0
0.842969 0.407227 0
0.778125 0.405469 0
0.902344 0.34082 0
0.837891 0.339355 0
0.773438 0.337891 0
0.896875 0.272656 0
0.832812 0.271484 0
0.76875 0.270313 0
0.7875 0.540625 0
0.721875 0.538281 0
0.65625 0.535937 0
0.782813 0.473047 0
0.717578 0.470996 0
0.652344 0.468945 0
0.778125 0.405469 0
0.713281 0.403711 0
0.648438 0.401953 0
0.65625 0.535937 0
0.590625 0.533594 0
0.525 0.53125 0
0.652344 0.468945 0
0.587109 0.466895 0
0.521875 0.464844 0
0.648438 0.401953 0
0.583594 0.400195 0
0.51875 0.398438 0
0.778125 0.405469 0
0.713281 0.403711 0
0.648438 0.401953 0
0.773438 0.337891 0
0.708984 0.336426 0
0.644531 0.334961 0
0.76875 0.270313 0
0.704687 0.269141 0
0.640625 0.267969 0
0.648438 0.401953 0
0.583594 0.400195 0
0.51875 0.398438 0
0.644531 0.334961 0
0.580078 0.333496 0
0.515625 0.332031 0
0.640625 0.267969 0
0.576562 0.266797 0
0.5125 0.265625 0
1.025 0.275 0
0.960937 0.273828 0
0.896875 0.272656 0
1.01875 0.20625 0
0.955078 0.205371 0
0.891406 0.204492 0
1.0125 0.1375 0
0.949219 0.136914 0
0.885937 0.136328 0
0.896875 0.272656 0
0.832812 0.271484 0
0.76875 0.270313 0
0.891406 0.204492 0
0.827734 0.203613 0
0.764062 0.202734 0
0.885937 0.136328 0
0.822656 0.135742 0
0.759375 0.135156 0
1.0125 0.1375 0
0.949219 0.136914 0
0.885937 0.136328 0
1.00625 0.06875 0
0.943359 0.068457 0
0.880469 0.0681641 0
1 0 0
0.9375 0 0
0.875 0 0
0.885937 0.136328 0
0.822656 0.135742 0
0.759375 0.135156 0
0.880469 0.0681641 0
0.817578 0.0678711 0
0.754687 0.0675781 0
0.875 0 0
0.8125 0 0
0.75 0 0
0.76875 0.270313 0
0.704687 0.269141 0
0.640625 0.267969 0
0.764062 0.202734 0
0.700391 0.201855 0
0.636719 0.200977 0
0.759375 0.135156 0
0.696094 0.13457 0
0.632812 0.133984 0
0.640625 0.267969 0
0.576562 0.266797 0
0.5125 0.265625 0
0.636719 0.200977 0
0.573047 0.200098 0
0.509375 0.199219 0
0.632812 0.133984 0
0.569531 0.133398 0
0.50625 0.132812 0
0.759375 0.135156 0
0.696094 0.13457 0
0.632812 0.133984 0
0.754687 0.0675781 0
0.691797 0.0672852 0
0.628906 0.0669922 0
0.75 0 0
0.6875 0 0
0.625 0 0
0.632812 0.133984 0
0.569531 0.133398 0
0.50625 0.132812 0
0.628906 0.0669922 0
0.566016 0.0666992 0
0.503125 0.0664062 0
0.625 0 0
0.5625 0 0
0.5 0 0
0.525 0.53125 0
0.459375 0.528906 0
0.39375 0.526563 0
0.521875 0.464844 0
0.456641 0.462793 0
0.391406 0.460742 0
0.51875 0.398438 0
0.453906 0.39668 0
0.389063 0.394922 0
0.39375 0.526563 0
0.328125 0.524219 0
0.2625 0.521875 0
0.391406 0.460742 0
0.326172 0.458691 0
0.260938 0.456641 0
0.389063 0.394922 0
0.324219 0.393164 0
0.259375 0.391406 0
0.51875 0.398438 0
0.453906 0.39668 0
0.389063 0.394922 0
0.515625 0.332031 0
0.451172 0.330566 0
0.386719 0.329102 0
0.5125 0.265625 0
0.448437 0.264453 0
0.384375 0.263281 0
0.389063 0.394922 0
0.324219 0.393164 0
0.259375 0.391406 0
0.386719 0.329102 0
0.322266 0.327637 0
0.257812 0.326172 0
0.384375 0.263281 0
0.320312 0.262109 0
0.25625 0.260937 0
0.2625 0.521875 0
0.196875 0.519531 0
0.13125 0.517187 0
0.260938 0.456641 0
0.195703 0.45459 0
0.130469 0.452539 0
0.259375 0.391406 0
0.194531 0.389648 0
0.129688 0.387891 0
0.13125 0.517187 0
0.065625 0.514844 0
0 0.5125 0
0.130469 0.452539 0
0.0652344 0.450488 0
0 0.448437 0
0.129688 0.387891 0
0.0648438 0.386133 0
0 0.384375 0
0.259375 0.391406 0
0.194531 0.389648 0
0.129688 0.387891 0
0.257812 0.326172 0
0.193359 0.324707 0
0.128906 0.323242 0
0.25625 0.260937 0
0.192187 0.259766 0
0.128125 0.258594 0
0.129688 0.387891 0
0.0648438 0.386133 0
0 0.384375 0
0.128906 0.323242 0
0.0644531 0.321777 0
0 0.320312 0
0.128125 0.258594 0
0.0640625 0.257422 0
0 0.25625 0
0.5125 0.265625 0
0.448437 0.264453 0
0.384375 0.263281 0
0.509375 0.199219 0
0.445703 0.19834 0
0.382031 0.197461 0
0.50625 0.132812 0
0.442969 0.132227 0
0.379688 0.131641 0
0.384375 0.263281 0
0.320312 0.262109 0
0.25625 0.260937 0
0.382031 0.197461 0
0.318359 0.196582 0
0.254687 0.195703 0
[...]
POINT_DATA 34560
VECTORS v double
1.22199 -0.278879 0
1.20898 -0.248276 0
1.19798 -0.220478 0
1.19003 -0.263108 0
1.17501 -0.235784 0
1.1624 -0.210117 0
1.15317 -0.246661 0
1.13683 -0.221812 0
1.12256 -0.198261 0
1.19798 -0.220478 0
1.18843 -0.194312 0
1.18054 -0.170416 0
1.1624 -0.210117 0
1.15094 -0.186005 0
1.14155 -0.163667 0
1.12256 -0.198261 0
1.1097 -0.176065 0
1.09873 -0.155288 0
1.15317 -0.246661 0
1.13683 -0.221812 0
1.12256 -0.198261 0
1.11036 -0.227841 0
1.09276 -0.205624 0
1.07726 -0.184431 0
1.06145 -0.209264 0
1.04313 -0.189448 0
1.02678 -0.170385 0
1.12256 -0.198261 0
1.1097 -0.176065 0
1.09873 -0.155288 0
1.07726 -0.184431 0
1.06319 -0.164303 0
1.05102 -0.14535 0
1.02678 -0.170385 0
1.01191 -0.152169 0
0.998865 -0.1349 0
1.18054 -0.170416 0
1.17329 -0.148276 0
1.16732 -0.128054 0
1.14155 -0.163667 0
1.13265 -0.14286 0
1.12537 -0.123724 0
1.09873 -0.155288 0
1.08852 -0.135891 0
1.0799 -0.117906 0
1.16732 -0.128054 0
1.16156 -0.10948 0
1.15672 -0.092541 0
1.12537 -0.123724 0
1.11827 -0.106031 0
1.11237 -0.089827 0
1.0799 -0.117906 0
1.07168 -0.101236 0
1.06471 -0.0858798 0
1.09873 -0.155288 0
1.08852 -0.135891 0
1.0799 -0.117906 0
1.05102 -0.14535 0
1.03975 -0.127528 0
1.03006 -0.110915 0
0.998865 -0.1349 0
0.986815 -0.118584 0
0.976323 -0.103294 0
1.0799 -0.117906 0
1.07168 -0.101236 0
1.06471 -0.0858798 0
1.03006 -0.110915 0
1.02097 -0.0954325 0
1.01315 -0.081102 0
0.976323 -0.103294 0
0.966558 -0.0889907 0
0.958066 -0.075698 0
1.06145 -0.209264 0
1.04313 -0.189448 0
1.02678 -0.170385 0
1.00722 -0.189993 0
0.988404 -0.172458 0
0.971486 -0.155475 0
0.948266 -0.170919 0
0.929168 -0.155467 0
0.911847 -0.140411 0
1.02678 -0.170385 0
1.01191 -0.152169 0
0.998865 -0.1349 0
0.971486 -0.155475 0
0.956033 -0.139143 0
0.942333 -0.123578 0
0.911847 -0.140411 0
0.895976 -0.125864 0
0.881787 -0.111934 0
0.948266 -0.170919 0
0.929168 -0.155467 0
0.911847 -0.140411 0
0.884504 -0.151047 0
0.865219 -0.137636 0
0.847658 -0.124511 0
0.81619 -0.131648 0
0.79689 -0.120132 0
0.779233 -0.108806 0
0.911847 -0.140411 0
0.895976 -0.125864 0
0.881787 -0.111934 0
0.847658 -0.124511 0
0.831516 -0.11177 0
0.817011 -0.0995164 0
0.779233 -0.108806 0
0.76297 -0.0977663 0
0.74829 -0.0871062 0
0.998865 -0.1349 0
0.986815 -0.118584 0
0.976323 -0.103294 0
0.942333 -0.123578 0
0.929698 -0.108808 0
0.918584 -0.0949032 0
0.881787 -0.111934 0
0.86872 -0.0986647 0
0.857138 -0.0861238 0
0.976323 -0.103294 0
0.966558 -0.0889907 0
0.958066 -0.075698 0
0.918584 -0.0949032 0
0.908308 -0.0818515 0
0.899303 -0.0696808 0
0.857138 -0.0861238 0
0.846484 -0.0743215 0
0.837095 -0.063285 0
0.881787 -0.111934 0
0.86872 -0.0986647 0
0.857138 -0.0861238 0
0.817011 -0.0995164 0
0.80366 -0.0877975 0
0.791771 -0.0766826 0
0.74829 -0.0871062 0
0.734791 -0.0768812 0
0.722725 -0.0671539 0
0.857138 -0.0861238 0
0.846484 -0.0743215 0
0.837095 -0.063285 0
0.791771 -0.0766826 0
0.780876 -0.0661923 0
0.771244 -0.05636 0
0.722725 -0.0671539 0
0.711709 -0.0579572 0
0.701949 -0.0493223 0
1.15672 -0.092541 0
1.15189 -0.0770568 0
1.14769 -0.0629533 0
1.11237 -0.089827 0
1.10653 -0.0749341 0
1.10153 -0.0613245 0
1.06471 -0.0858798 0
1.05799 -0.0717283 0
1.05221 -0.0587471 0
1.14769 -0.0629533 0
1.14345 -0.0500814 0
1.13961 -0.0383425 0
1.10153 -0.0613245 0
1.09657 -0.0488573 0
1.09219 -0.0374564 0
1.05221 -0.0587471 0
1.04662 -0.0468288 0
1.04173 -0.0359027 0
1.06471 -0.0858798 0
1.05799 -0.0717283 0
1.05221 -0.0587471 0
1.01315 -0.081102 0
1.00575 -0.0678413 0
0.999337 -0.0556343 0
0.958066 -0.075698 0
0.95014 -0.0633665 0
0.943224 -0.0519816 0
1.05221 -0.0587471 0
1.04662 -0.0468288 0
1.04173 -0.0359027 0
0.999337 -0.0556343 0
0.993294 -0.0443964 0
0.987995 -0.0340668 0
0.943224 -0.0519816 0
0.936816 -0.0414837 0
0.931204 -0.0318208 0
1.13961 -0.0383425 0
1.13573 -0.0275892 0
1.13209 -0.0177085 0
1.09219 -0.0374564 0
1.08788 -0.0269951 0
1.08396 -0.0173609 0
1.04173 -0.0359027 0
1.03704 -0.025861 0
1.03286 -0.0166097 0
1.13209 -0.0177085 0
1.12848 -0.00854032 0
1.125 0 0
1.08396 -0.0173609 0
1.08017 -0.00841107 0
1.07666 0 0
1.03286 -0.0166097 0
1.02893 -0.00801971 0
1.02539 0 0
1.04173 -0.0359027 0
1.03704 -0.025861 0
1.03286 -0.0166097 0
0.987995 -0.0340668 0
0.983052 -0.0245576 0
0.978681 -0.0157907 0
0.931204 -0.0318208 0
0.926062 -0.0229245 0
0.921551 -0.0147229 0
1.03286 -0.0166097 0
1.02893 -0.00801971 0
1.02539 0 0
0.978681 -0.0157907 0
0.974705 -0.00764531 0
0.971191 0 0
0.921551 -0.0147229 0
0.917542 -0.00711083 0
0.914062 0 0
0.958066 -0.075698 0
0.95014 -0.0633665 0
0.943224 -0.0519816 0
0.899303 -0.0696808 0
0.89098 -0.0583622 0
0.883688 -0.0478878 0
0.837095 -0.063285 0
0.828485 -0.0530056 0
0.820921 -0.0434772 0
0.943224 -0.0519816 0
0.936816 -0.0414837 0
0.931204 -0.0318208 0
0.883688 -0.0478878 0
0.877022 -0.0382163 0
0.871192 -0.0293072 0
0.820921 -0.0434772 0
0.814083 -0.0346765 0
0.808113 -0.0265695 0
0.837095 -0.063285 0
0.828485 -0.0530056 0
0.820921 -0.0434772 0
0.771244 -0.05636 0
0.762468 -0.0471874 0
0.754754 -0.0386751 0
0.701949 -0.0493223 0
0.693111 -0.0412631 0
0.685345 -0.0337805 0
0.820921 -0.0434772 0
0.814083 -0.0346765 0
0.808113 -0.0265695 0
0.754754 -0.0386751 0
0.747843 -0.03081 0
0.741827 -0.02357 0
0.685345 -0.0337805 0
0.678446 -0.0268739 0
0.672463 -0.0205261 0
0.931204 -0.0318208 0
0.926062 -0.0229245 0
0.921551 -0.0147229 0
0.871192 -0.0293072 0
0.865933 -0.021104 0
0.861357 -0.0135462 0
0.808113 -0.0265695 0
0.802799 -0.0191136 0
0.798208 -0.0122552 0
0.921551 -0.0147229 0
0.917542 -0.00711083 0
0.914062 0 0
0.861357 -0.0135462 0
0.857385 -0.00654062 0
0.854004 0 0
0.798208 -0.0122552 0
0.794295 -0.00591242 0
0.791016 0 0
0.808113 -0.0265695 0
0.802799 -0.0191136 0
0.798208 -0.0122552 0
0.741827 -0.02357 0
0.736536 -0.0169209 0
0.732001 -0.0108205 0
0.672463 -0.0205261 0
0.667258 -0.0147133 0
0.662833 -0.00939891 0
0.798208 -0.0122552 0
0.794295 -0.00591242 0
0.791016 0 0
0.732001 -0.0108205 0
0.728211 -0.00519874 0
0.725098 0 0
0.662833 -0.00939891 0
0.659193 -0.00452278 0
0.65625 0 0
0.81619 -0.131648 0
0.79689 -0.120132 0
0.779233 -0.108806 0
0.743648 -0.111756 0
0.724368 -0.102063 0
0.706686 -0.0924998 0
0.666847 -0.0922726 0
0.647682 -0.0843147 0
0.630059 -0.0764406 0
0.779233 -0.108806 0
0.76297 -0.0977663 0
0.74829 -0.0871062 0
0.706686 -0.0924998 0
0.690367 -0.0831481 0
0.675601 -0.0740943 0
0.630059 -0.0764406 0
0.61378 -0.0687206 0
0.599026 -0.0612311 0
0.666847 -0.0922726 0
0.647682 -0.0843147 0
0.630059 -0.0764406 0
0.585502 -0.0723266 0
0.56652 -0.0660566 0
0.549059 -0.0598503 0
0.497799 -0.0529801 0
0.479361 -0.0483425 0
0.4624 -0.0437574 0
0.630059 -0.0764406 0
0.61378 -0.0687206 0
0.599026 -0.0612311 0
0.549059 -0.0598503 0
0.532922 -0.0537603 0
0.518296 -0.0478512 0
0.4624 -0.0437574 0
0.446741 -0.0392585 0
0.432564 -0.0349001 0
0.74829 -0.0871062 0
0.734791 -0.0768812 0
0.722725 -0.0671539 0
0.675601 -0.0740943 0
0.662038 -0.0653899 0
0.649899 -0.0570914 0
0.599026 -0.0612311 0
0.585499 -0.0540179 0
0.573389 -0.0471308 0
0.722725 -0.0671539 0
0.711709 -0.0579572 0
0.701949 -0.0493223 0
0.649899 -0.0570914 0
0.638856 -0.0492336 0
0.629075 -0.0418481 0
0.573389 -0.0471308 0
0.56242 -0.0406049 0
0.552721 -0.0344683 0
0.599026 -0.0612311 0
0.585499 -0.0540179 0
0.573389 -0.0471308 0
0.518296 -0.0478512 0
0.504919 -0.0421591 0
0.492961 -0.0367244 0
0.432564 -0.0349001 0
0.41964 -0.0307053 0
0.408116 -0.0267072 0
0.573389 -0.0471308 0
0.56242 -0.0406049 0
0.552721 -0.0344683 0
0.492961 -0.0367244 0
0.482185 -0.0315765 0
0.472692 -0.0267386 0
0.408116 -0.0267072 0
0.397789 -0.0229254 0
0.388738 -0.0193784 0
0.497799 -0.0529801 0
0.479361 -0.0483425 0
0.4624 -0.0437574 0
0.400455 -0.0340185 0
0.383278 -0.0309399 0
0.367543 -0.0279124 0
0.287596 -0.0172806 0
0.273348 -0.0156787 0
0.260378 -0.0141163 0
0.4624 -0.0437574 0
0.446741 -0.0392585 0
0.432564 -0.0349001 0
0.367543 -0.0279124 0
0.353053 -0.024954 0
0.339993 -0.0221037 0
0.260378 -0.0141163 0
0.248499 -0.0125873 0
0.237866 -0.0111253 0
0.287596 -0.0172806 0
0.273348 -0.0156787 0
0.260378 -0.0141163 0
0.153451 -0.00487237 0
0.14482 -0.00438462 0
0.13709 -0.00392256 0
0 0 0
0 0 0
0 0 0
0.260378 -0.0141163 0
0.248499 -0.0125873 0
0.237866 -0.0111253 0
0.13709 -0.00392256 0
0.130029 -0.00346404 0
0.123807 -0.00303735 0
0 0 0
0 0 0
0 0 0
0.432564 -0.0349001 0
0.41964 -0.0307053 0
0.408116 -0.0267072 0
0.339993 -0.0221037 0
0.32814 -0.0193734 0
0.317626 -0.0167848 0
0.237866 -0.0111253 0
0.228278 -0.0097285 0
0.219836 -0.00841388 0
0.408116 -0.0267072 0
0.397789 -0.0229254 0
0.388738 -0.0193784 0
0.317626 -0.0167848 0
0.308263 -0.0143487 0
0.300112 -0.0120757 0
0.219836 -0.00841388 0
0.212371 -0.00718112 0
0.205922 -0.00603906 0
0.237866 -0.0111253 0
0.228278 -0.0097285 0
0.219836 -0.00841388 0
0.123807 -0.00303735 0
0.118221 -0.00262963 0
0.113374 -0.00225534 0
0 0 0
0 0 0
0 0 0
0.219836 -0.00841388 0
0.212371 -0.00718112 0
0.205922 -0.00603906 0
0.113374 -0.00225534 0
0.109109 -0.00190506 0
0.10547 -0.00158773 0
0 0 0
0 0 0
0 0 0
0.701949 -0.0493223 0
0.693111 -0.0412631 0
0.685345 -0.0337805 0
0.629075 -0.0418481 0
0.620274 -0.0349529 0
0.612559 -0.0285521 0
0.552721 -0.0344683 0
0.544055 -0.0287425 0
0.53649 -0.0234312 0
0.685345 -0.0337805 0
0.678446 -0.0268739 0
0.672463 -0.0205261 0
0.612559 -0.0285521 0
0.605763 -0.0226502 0
0.599902 -0.0172387 0
0.53649 -0.0234312 0
0.529887 -0.0185448 0
0.524232 -0.0140779 0
0.552721 -0.0344683 0
0.544055 -0.0287425 0
0.53649 -0.0234312 0
0.472692 -0.0267386 0
0.464278 -0.0222293 0
0.456984 -0.0180518 0
0.388738 -0.0193784 0
0.380784 -0.0160786 0
0.373946 -0.0130267 0
0.53649 -0.0234312 0
0.529887 -0.0185448 0
0.524232 -0.0140779 0
0.456984 -0.0180518 0
0.450682 -0.0142158 0
0.445341 -0.0107208 0
0.373946 -0.0130267 0
0.368108 -0.0102299 0
0.363222 -0.00768993 0
0.672463 -0.0205261 0
0.667258 -0.0147133 0
0.662833 -0.00939891 0
0.599902 -0.0172387 0
0.594859 -0.0123004 0
0.590613 -0.00780968 0
0.524232 -0.0140779 0
0.519423 -0.0100217 0
0.515417 -0.0063555 0
0.662833 -0.00939891 0
0.659193 -0.00452278 0
0.65625 0 0
0.590613 -0.00780968 0
0.587183 -0.0037174 0
0.584473 0 0
0.515417 -0.0063555 0
0.512234 -0.00304311 0
0.509766 0 0
0.524232 -0.0140779 0
0.519423 -0.0100217 0
0.515417 -0.0063555 0
0.445341 -0.0107208 0
0.440856 -0.00756193 0
0.437171 -0.00473318 0
0.363222 -0.00768993 0
0.35918 -0.00540593 0
0.35591 -0.0033728 0
0.515417 -0.0063555 0
0.512234 -0.00304311 0
0.509766 0 0
0.437171 -0.00473318 0
0.434297 -0.00220959 0
0.432129 0 0
0.35591 -0.0033728 0
0.353406 -0.00159272 0
0.351562 0 0
0.388738 -0.0193784 0
0.380784 -0.0160786 0
0.373946 -0.0130267 0
0.300112 -0.0120757 0
0.293015 -0.00997183 0
0.286971 -0.00803256 0
0.205922 -0.00603906 0
0.200357 -0.00498625 0
0.195663 -0.00401956 0
0.373946 -0.0130267 0
0.368108 -0.0102299 0
0.363222 -0.00768993 0
0.286971 -0.00803256 0
0.281876 -0.00625947 0
0.277673 -0.00465448 0
0.195663 -0.00401956 0
0.191749 -0.00313593 0
0.188565 -0.00233883 0
0.205922 -0.00603906 0
0.200357 -0.00498625 0
0.195663 -0.00401956 0
0.10547 -0.00158773 0
0.10235 -0.0012972 0
0.0997443 -0.00103417 0
0 0 0
0 0 0
0 0 0
0.195663 -0.00401956 0
0.191749 -0.00313593 0
0.188565 -0.00233883 0
0.0997443 -0.00103417 0
0.0975905 -0.000792467 0
0.0958506 -0.000578425 0
0 0 0
0 0 0
0 0 0
0.363222 -0.00768993 0
0.35918 -0.00540593 0
0.35591 -0.0033728 0
0.277673 -0.00465448 0
0.27426 -0.00321353 0
0.271558 -0.0019385 0
0.188565 -0.00233883 0
0.186034 -0.00162298 0
0.184084 -0.000981499 0
0.35591 -0.0033728 0
0.353406 -0.00159272 0
0.351562 0 0
0.271558 -0.0019385 0
0.269527 -0.000837799 0
0.268066 0 0
0.184084 -0.000981499 0
0.182652 -0.000440548 0
0.181641 0 0
0.188565 -0.00233883 0
0.186034 -0.00162298 0
0.184084 -0.000981499 0
0.0958506 -0.000578425 0
0.0944941 -0.00038799 0
0.093485 -0.000214048 0
0 0 0
0 0 0
0 0 0
0.184084 -0.000981499 0
0.182652 -0.000440548 0
0.181641 0 0
0.093485 -0.000214048 0
0.0927655 -5.08856e-05 0
0.0922852 0 0
0 0 0
0 0 0
0 0 0
1.69731 -0.477907 0
1.6553 -0.494456 0
1.61172 -0.505574 0
1.63951 -0.426265 0
1.60077 -0.441876 0
1.56063 -0.452727 0
1.57595 -0.379599 0
1.54111 -0.394399 0
1.50492 -0.40512 0
1.61172 -0.505574 0
1.56838 -0.510863 0
1.52454 -0.510718 0
1.56063 -0.452727 0
1.52076 -0.458831 0
1.48041 -0.460156 0
1.50492 -0.40512 0
1.46895 -0.41182 0
1.4325 -0.414335 0
1.57595 -0.379599 0
1.54111 -0.394399 0
1.50492 -0.40512 0
1.51426 -0.339367 0
1.48246 -0.352243 0
1.44948 -0.361736 0
1.44928 -0.299994 0
1.41923 -0.311766 0
1.38813 -0.320618 0
1.50492 -0.40512 0
1.46895 -0.41182 0
1.4325 -0.414335 0
1.44948 -0.361736 0
1.41648 -0.367817 0
1.38297 -0.370402 0
1.38813 -0.320618 0
1.35706 -0.326564 0
1.32557 -0.329507 0
1.52454 -0.510718 0
1.48368 -0.505436 0
1.44354 -0.495137 0
1.48041 -0.460156 0
1.4426 -0.456987 0
1.40537 -0.449756 0
1.4325 -0.414335 0
1.39804 -0.413022 0
1.36405 -0.40798 0
1.44354 -0.495137 0
1.40761 -0.48132 0
1.3733 -0.463874 0
1.40537 -0.449756 0
1.37168 -0.439056 0
1.33942 -0.425179 0
1.36405 -0.40798 0
1.33281 -0.399739 0
1.30278 -0.388505 0
1.4325 -0.414335 0
1.39804 -0.413022 0
1.36405 -0.40798 0
1.38297 -0.370402 0
1.35087 -0.369713 0
1.31904 -0.365852 0
1.32557 -0.329507 0
1.29523 -0.329639 0
1.26518 -0.327034 0
1.36405 -0.40798 0
1.33281 -0.399739 0
1.30278 -0.388505 0
1.31904 -0.365852 0
1.28935 -0.359269 0
1.26062 -0.350089 0
1.26518 -0.327034 0
1.23692 -0.322021 0
1.20957 -0.314699 0
1.44928 -0.299994 0
1.41923 -0.311766 0
1.38813 -0.320618 0
1.38044 -0.264356 0
1.35215 -0.275259 0
1.3229 -0.283574 0
1.31089 -0.230288 0
1.2841 -0.240364 0
1.25638 -0.248191 0
1.38813 -0.320618 0
1.35706 -0.326564 0
1.32557 -0.329507 0
1.3229 -0.283574 0
1.2937 -0.289317 0
1.26412 -0.29243 0
1.25638 -0.248191 0
1.22866 -0.25377 0
1.20054 -0.25705 0
1.31089 -0.230288 0
1.2841 -0.240364 0
1.25638 -0.248191 0
1.24006 -0.198272 0
1.21439 -0.207347 0
1.18781 -0.214471 0
1.16668 -0.167485 0
1.14185 -0.175707 0
1.11611 -0.182258 0
1.25638 -0.248191 0
1.22866 -0.25377 0
1.20054 -0.25705 0
1.18781 -0.214471 0
1.16118 -0.21966 0
1.13414 -0.222868 0
1.11611 -0.182258 0
1.09031 -0.187153 0
1.0641 -0.190347 0
1.32557 -0.329507 0
1.29523 -0.329639 0
1.26518 -0.327034 0
1.26412 -0.29243 0
1.23551 -0.293071 0
1.20714 -0.291289 0
1.20054 -0.25705 0
1.1732 -0.258157 0
1.14604 -0.257128 0
1.26518 -0.327034 0
1.23692 -0.322021 0
1.20957 -0.314699 0
1.20714 -0.291289 0
1.18027 -0.287362 0
1.15419 -0.281365 0
1.14604 -0.257128 0
1.12013 -0.254192 0
1.09491 -0.249409 0
1.20054 -0.25705 0
1.1732 -0.258157 0
1.14604 -0.257128 0
1.13414 -0.222868 0
1.10772 -0.224212 0
1.08143 -0.223705 0
1.0641 -0.190347 0
1.0384 -0.191934 0
1.0128 -0.191923 0
1.14604 -0.257128 0
1.12013 -0.254192 0
1.09491 -0.249409 0
1.08143 -0.223705 0
1.0562 -0.221548 0
1.03158 -0.21777 0
1.0128 -0.191923 0
0.988108 -0.190472 0
0.963983 -0.187604 0
1.3733 -0.463874 0
1.34375 -0.444325 0
1.31662 -0.422163 0
1.33942 -0.425179 0
1.31131 -0.408841 0
1.28532 -0.390482 0
1.30278 -0.388505 0
1.27603 -0.374988 0
1.25109 -0.359419 0
1.31662 -0.422163 0
1.29354 -0.399201 0
1.27309 -0.375106 0
1.28532 -0.390482 0
1.26287 -0.370839 0
1.24284 -0.349968 0
1.25109 -0.359419 0
1.22906 -0.342394 0
1.2091 -0.324097 0
1.30278 -0.388505 0
1.27603 -0.374988 0
1.25109 -0.359419 0
1.26062 -0.350089 0
1.2346 -0.338866 0
1.21012 -0.325744 0
1.20957 -0.314699 0
1.18454 -0.30549 0
1.16094 -0.294554 0
1.25109 -0.359419 0
1.22906 -0.342394 0
1.2091 -0.324097 0
1.21012 -0.325744 0
1.1882 -0.311287 0
1.16817 -0.295635 0
1.16094 -0.294554 0
1.13958 -0.282324 0
1.11995 -0.26892 0
1.27309 -0.375106 0
1.25629 -0.350894 0
1.24237 -0.326263 0
1.24284 -0.349968 0
1.22605 -0.328482 0
1.21177 -0.306638 0
1.2091 -0.324097 0
1.19187 -0.305115 0
1.17687 -0.285627 0
1.24237 -0.326263 0
1.231 -0.30224 0
1.22199 -0.278879 0
1.21177 -0.306638 0
1.19972 -0.284851 0
1.19003 -0.263108 0
1.17687 -0.285627 0
1.16395 -0.26606 0
1.15317 -0.246661 0
1.2091 -0.324097 0
1.19187 -0.305115 0
1.17687 -0.285627 0
1.16817 -0.295635 0
1.15067 -0.279269 0
1.13525 -0.262315 0
1.11995 -0.26892 0
1.10258 -0.254725 0
1.0871 -0.23988 0
1.17687 -0.285627 0
1.16395 -0.26606 0
1.15317 -0.246661 0
1.13525 -0.262315 0
1.12179 -0.245134 0
1.11036 -0.227841 0
1.0871 -0.23988 0
1.07335 -0.224678 0
1.06145 -0.209264 0
1.20957 -0.314699 0
1.18454 -0.30549 0
1.16094 -0.294554 0
1.15419 -0.281365 0
1.13007 -0.273665 0
1.10721 -0.264389 0
1.09491 -0.249409 0
1.07134 -0.243082 0
1.04891 -0.235321 0
1.16094 -0.294554 0
1.13958 -0.282324 0
1.11995 -0.26892 0
1.10721 -0.264389 0
1.08625 -0.253904 0
1.06685 -0.242303 0
1.04891 -0.235321 0
1.02817 -0.226431 0
1.00886 -0.216506 0
1.09491 -0.249409 0
1.07134 -0.243082 0
1.04891 -0.235321 0
1.03158 -0.21777 0
1.0084 -0.212634 0
0.986272 -0.20621 0
0.963983 -0.187604 0
0.941099 -0.183529 0
0.919183 -0.17831 0
1.04891 -0.235321 0
1.02817 -0.226431 0
1.00886 -0.216506 0
0.986272 -0.20621 0
0.965645 -0.198764 0
0.946351 -0.190365 0
0.919183 -0.17831 0
0.898602 -0.172161 0
0.879264 -0.165144 0
1.11995 -0.26892 0
1.10258 -0.254725 0
1.0871 -0.23988 0
1.06685 -0.242303 0
1.04941 -0.22994 0
1.0337 -0.216953 0
1.00886 -0.216506 0
0.991327 -0.205846 0
0.975411 -0.194572 0
1.0871 -0.23988 0
1.07335 -0.224678 0
1.06145 -0.209264 0
1.0337 -0.216953 0
1.0196 -0.203612 0
1.00722 -0.189993 0
0.975411 -0.194572 0
0.96102 -0.1829 0
0.948266 -0.170919 0
1.00886 -0.216506 0
0.991327 -0.205846 0
0.975411 -0.194572 0
0.946351 -0.190365 0
0.928662 -0.181267 0
0.912487 -0.171568 0
0.879264 -0.165144 0
0.861379 -0.15747 0
0.844924 -0.149233 0
0.975411 -0.194572 0
0.96102 -0.1829 0
0.948266 -0.170919 0
0.912487 -0.171568 0
0.897725 -0.161466 0
0.884504 -0.151047 0
0.844924 -0.149233 0
0.82981 -0.1406 0
0.81619 -0.131648 0
1.16668 -0.167485 0
1.14185 -0.175707 0
1.11611 -0.182258 0
1.09154 -0.138777 0
1.06741 -0.146082 0
1.04238 -0.151959 0
1.01357 -0.110808 0
0.990077 -0.117244 0
0.965634 -0.122483 0
1.11611 -0.182258 0
1.09031 -0.187153 0
1.0641 -0.190347 0
1.04238 -0.151959 0
1.01724 -0.156416 0
0.991677 -0.159416 0
0.965634 -0.122483 0
0.941025 -0.126531 0
0.91594 -0.129357 0
1.01357 -0.110808 0
0.990077 -0.117244 0
0.965634 -0.122483 0
0.929907 -0.0843288 0
0.907286 -0.0897771 0
0.883631 -0.0942547 0
0.833453 -0.0592371 0
0.812324 -0.0636229 0
0.789988 -0.0672708 0
0.965634 -0.122483 0
0.941025 -0.126531 0
0.91594 -0.129357 0
0.883631 -0.0942547 0
0.859695 -0.0977642 0
0.835204 -0.100279 0
0.789988 -0.0672708 0
0.767233 -0.0701821 0
0.743793 -0.0723283 0
1.0641 -0.190347 0
1.0384 -0.191934 0
1.0128 -0.191923 0
0.991677 -0.159416 0
0.966511 -0.161039 0
0.941403 -0.161293 0
0.91594 -0.129357 0
0.891153 -0.131028 0
0.866371 -0.131544 0
1.0128 -0.191923 0
0.988108 -0.190472 0
0.963983 -0.187604 0
0.941403 -0.161293 0
0.917055 -0.160312 0
0.893209 -0.158112 0
0.866371 -0.131544 0
0.842229 -0.131019 0
0.818532 -0.129463 0
0.91594 -0.129357 0
0.891153 -0.131028 0
0.866371 -0.131544 0
0.835204 -0.100279 0
0.810883 -0.101855 0
0.786488 -0.102488 0
0.743793 -0.0723283 0
0.720373 -0.0737528 0
0.696772 -0.0744465 0
0.866371 -0.131544 0
0.842229 -0.131019 0
0.818532 -0.129463 0
0.786488 -0.102488 0
0.762608 -0.10227 0
0.739095 -0.101208 0
0.696772 -0.0744465 0
0.673541 -0.074482 0
0.650584 -0.0738602 0
0.833453 -0.0592371 0
0.812324 -0.0636229 0
0.789988 -0.0672708 0
0.71223 -0.0369135 0
0.69379 -0.040046 0
0.673979 -0.0426741 0
0.546093 -0.0175163 0
0.531958 -0.0193127 0
0.516397 -0.0208362 0
0.789988 -0.0672708 0
0.767233 -0.0701821 0
0.743793 -0.0723283 0
0.673979 -0.0426741 0
0.653529 -0.044798 0
0.632233 -0.0463892 0
0.516397 -0.0208362 0
0.50006 -0.0220969 0
0.482801 -0.0230622 0
0.546093 -0.0175163 0
0.531958 -0.0193127 0
0.516397 -0.0208362 0
0.313244 -0.00508384 0
0.305123 -0.00564459 0
0.295917 -0.00610794 0
0 0 0
0 0 0
0 0 0
0.516397 -0.0208362 0
0.50006 -0.0220969 0
0.482801 -0.0230622 0
0.295917 -0.00610794 0
0.286113 -0.00650164 0
0.275585 -0.00678598 0
0 0 0
0 0 0
0 0 0
0.743793 -0.0723283 0
0.720373 -0.0737528 0
0.696772 -0.0744465 0
0.632233 -0.0463892 0
0.610749 -0.0474808 0
0.588942 -0.0480589 0
0.482801 -0.0230622 0
0.465178 -0.0237619 0
0.447132 -0.0241725 0