# vtk DataFile Version 3.0
#This file was generated by the deal.II library on 2025/1/3 at 17:10:10
ASCII
DATASET UNSTRUCTURED_GRID

POINTS 34560 double
1.1 1.1 0
1.03125 1.09531 0
0.9625 1.09063 0
1.09375 1.03125 0
1.02539 1.02686 0
0.957031 1.02246 0
1.0875 0.9625 0
1.01953 0.958398 0
0.951563 0.954297 0
0.9625 1.09063 0
0.89375 1.08594 0
0.825 1.08125 0
0.957031 1.02246 0
0.888672 1.01807 0
0.820312 1.01367 0
0.951563 0.954297 0
0.883594 0.950195 0
0.815625 0.946094 0
1.0875 0.9625 0
1.01953 0.958398 0
0.951563 0.954297 0
1.08125 0.89375 0
1.01367 0.889941 0
0.946094 0.886133 0
1.075 0.825 0
1.00781 0.821484 0
0.940625 0.817969 0
0.951563 0.954297 0
0.883594 0.950195 0
0.815625 0.946094 0
0.946094 0.886133 0
0.878516 0.882324 0
0.810938 0.878516 0
0.940625 0.817969 0
0.873438 0.814453 0
0.80625 0.810937 0
0.825 1.08125 0
0.75625 1.07656 0
0.6875 1.07187 0
0.820312 1.01367 0
0.751953 1.00928 0
0.683594 1.00488 0
0.815625 0.946094 0
0.747656 0.941992 0
0.679688 0.937891 0
0.6875 1.07187 0
0.61875 1.06719 0
0.55 1.0625 0
0.683594 1.00488 0
0.615234 1.00049 0
0.546875 0.996094 0
0.679688 0.937891 0
0.611719 0.933789 0
0.54375 0.929688 0
0.815625 0.946094 0
0.747656 0.941992 0
0.679688 0.937891 0
0.810938 0.878516 0
0.743359 0.874707 0
0.675781 0.870898 0
0.80625 0.810937 0
0.739063 0.807422 0
0.671875 0.803906 0
0.679688 0.937891 0
0.611719 0.933789 0
0.54375 0.929688 0
0.675781 0.870898 0
0.608203 0.86709 0
0.540625 0.863281 0
0.671875 0.803906 0
0.604688 0.800391 0
0.5375 0.796875 0
1.075 0.825 0
1.00781 0.821484 0
0.940625 0.817969 0
1.06875 0.75625 0
1.00195 0.753027 0
0.935156 0.749805 0
1.0625 0.6875 0
0.996094 0.68457 0
0.929688 0.681641 0
0.940625 0.817969 0
0.873438 0.814453 0
0.80625 0.810937 0
0.935156 0.749805 0
0.868359 0.746582 0
0.801563 0.743359 0
0.929688 0.681641 0
0.863281 0.678711 0
0.796875 0.675781 0
1.0625 0.6875 0
0.996094 0.68457 0
0.929688 0.681641 0
1.05625 0.61875 0
0.990234 0.616113 0
0.924219 0.613477 0
1.05 0.55 0
0.984375 0.547656 0
0.91875 0.545313 0
0.929688 0.681641 0
0.863281 0.678711 0
0.796875 0.675781 0
0.924219 0.613477 0
0.858203 0.61084 0
0.792188 0.608203 0
0.91875 0.545313 0
0.853125 0.542969 0
0.7875 0.540625 0
0.80625 0.810937 0
0.739063 0.807422 0
0.671875 0.803906 0
0.801563 0.743359 0
0.734766 0.740137 0
0.667969 0.736914 0
0.796875 0.675781 0
0.730469 0.672852 0
0.664062 0.669922 0
0.671875 0.803906 0
0.604688 0.800391 0
0.5375 0.796875 0
0.667969 0.736914 0
0.601172 0.733691 0
0.534375 0.730469 0
0.664062 0.669922 0
0.597656 0.666992 0
0.53125 0.664062 0
0.796875 0.675781 0
0.730469 0.672852 0
0.664062 0.669922 0
0.792188 0.608203 0
0.726172 0.605566 0
0.660156 0.60293 0
0.7875 0.540625 0
0.721875 0.538281 0
0.65625 0.535937 0
0.664062 0.669922 0
0.597656 0.666992 0
0.53125 0.664062 0
0.660156 0.60293 0
0.594141 0.600293 0
0.528125 0.597656 0
0.65625 0.535937 0
0.590625 0.533594 0
0.525 0.53125 0
0.55 1.0625 0
0.48125 1.05781 0
0.4125 1.05313 0
0.546875 0.996094 0
0.478516 0.991699 0
0.410156 0.987305 0
0.54375 0.929688 0
0.475781 0.925586 0
0.407813 0.921484 0
0.4125 1.05313 0
0.34375 1.04844 0
0.275 1.04375 0
0.410156 0.987305 0
0.341797 0.98291 0
0.273438 0.978516 0
0.407813 0.921484 0
0.339844 0.917383 0
0.271875 0.913281 0
0.54375 0.929688 0
0.475781 0.925586 0
0.407813 0.921484 0
0.540625 0.863281 0
0.473047 0.859473 0
0.405469 0.855664 0
0.5375 0.796875 0
0.470313 0.793359 0
0.403125 0.789844 0
0.407813 0.921484 0
0.339844 0.917383 0
0.271875 0.913281 0
0.405469 0.855664 0
0.337891 0.851855 0
0.270313 0.848047 0
0.403125 0.789844 0
0.335938 0.786328 0
0.26875 0.782813 0
0.275 1.04375 0
0.20625 1.03906 0
0.1375 1.03437 0
0.273438 0.978516 0
0.205078 0.974121 0
0.136719 0.969727 0
0.271875 0.913281 0
0.203906 0.90918 0
0.135938 0.905078 0
0.1375 1.03437 0
0.06875 1.02969 0
0 1.025 0
0.136719 0.969727 0
0.0683594 0.965332 0
0 0.960937 0
0.135938 0.905078 0
0.0679688 0.900977 0
0 0.896875 0
0.271875 0.913281 0
0.203906 0.90918 0
0.135938 0.905078 0
0.270313 0.848047 0
0.202734 0.844238 0
0.135156 0.84043 0
0.26875 0.782813 0
0.201563 0.779297 0
0.134375 0.775781 0
0.135938 0.905078 0
0.0679688 0.900977 0
0 0.896875 0
0.135156 0.84043 0
0.0675781 0.836621 0
0 0.832812 0
0.134375 0.775781 0
0.0671875 0.772266 0
0 0.76875 0
0.5375 0.796875 0
0.470313 0.793359 0
0.403125 0.789844 0
0.534375 0.730469 0
0.467578 0.727246 0
0.400781 0.724023 0
0.53125 0.664062 0
0.464844 0.661133 0
0.398438 0.658203 0
0.403125 0.789844 0
0.335938 0.786328 0
0.26875 0.782813 0
0.400781 0.724023 0
0.333984 0.720801 0
0.267188 0.717578 0
0.398438 0.658203 0
0.332031 0.655273 0
0.265625 0.652344 0
0.53125 0.664062 0
0.464844 0.661133 0
0.398438 0.658203 0
0.528125 0.597656 0
0.462109 0.59502 0
0.396094 0.592383 0
0.525 0.53125 0
0.459375 0.528906 0
0.39375 0.526563 0
0.398438 0.658203 0
0.332031 0.655273 0
0.265625 0.652344 0
0.396094 0.592383 0
0.330078 0.589746 0
0.264062 0.587109 0
0.39375 0.526563 0
0.328125 0.524219 0
0.2625 0.521875 0
0.26875 0.782813 0
0.201563 0.779297 0
0.134375 0.775781 0
0.267188 0.717578 0
0.200391 0.714355 0
0.133594 0.711133 0
0.265625 0.652344 0
0.199219 0.649414 0
0.132812 0.646484 0
0.134375 0.775781 0
0.0671875 0.772266 0
0 0.76875 0
0.133594 0.711133 0
0.0667969 0.70791 0
0 0.704687 0
0.132812 0.646484 0
0.0664062 0.643555 0
0 0.640625 0
0.265625 0.652344 0
0.199219 0.649414 0
0.132812 0.646484 0
0.264062 0.587109 0
0.198047 0.584473 0
0.132031 0.581836 0
0.2625 0.521875 0
0.196875 0.519531 0
0.13125 0.517187 0
0.132812 0.646484 0
0.0664062 0.643555 0
0 0.640625 0
0.132031 0.581836 0
0.0660156 0.579199 0
0 0.576562 0
0.13125 0.517187 0
0.065625 0.514844 0
0 0.5125 0
1.05 0.55 0
0.984375 0.547656 0
0.91875 0.545313 0
1.04375 0.48125 0
0.978516 0.479199 0
0.913281 0.477148 0
1.0375 0.4125 0
0.972656 0.410742 0
0.907813 0.408984 0
0.91875 0.545313 0
0.853125 0.542969 0
0.7875 0.540625 0
0.913281 0.477148 0
0.848047 0.475098 0
0.782813 0.473047 0
0.907813 0.408984 0
0.842969 0.407227 0
0.778125 0.405469 0
1.0375 0.4125 0
0.972656 0.410742 0
0.907813 0.408984 0
1.03125 0.34375 0
0.966797 0.342285 0
0.902344 0.34082 0
1.025 0.275 0
0.960937 0.273828 0
0.896875 0.272656 0
0.907813 0.408984 0
0.842969 0.407227 0
0.778125 0.405469 0
0.902344 0.34082 0
0.837891 0.339355 0
0.773438 0.337891 0
0.896875 0.272656 0
0.832812 0.271484 0
0.76875 0.270313 0
0.7875 0.540625 0
0.721875 0.538281 0
0.65625 0.535937 0
0.782813 0.473047 0
0.717578 0.470996 0
0.652344 0.468945 0
0.778125 0.405469 0
0.713281 0.403711 0
0.648438 0.401953 0
0.65625 0.535937 0
0.590625 0.533594 0
0.525 0.53125 0
0.652344 0.468945 0
0.587109 0.466895 0
0.521875 0.464844 0
0.648438 0.401953 0
0.583594 0.400195 0
0.51875 0.398438 0
0.778125 0.405469 0
0.713281 0.403711 0
0.648438 0.401953 0
0.773438 0.337891 0
0.708984 0.336426 0
0.644531 0.334961 0
0.76875 0.270313 0
0.704687 0.269141 0
0.640625 0.267969 0
0.648438 0.401953 0
0.583594 0.400195 0
0.51875 0.398438 0
0.644531 0.334961 0
0.580078 0.333496 0
0.515625 0.332031 0
0.640625 0.267969 0
0.576562 0.266797 0
0.5125 0.265625 0
1.025 0.275 0
0.960937 0.273828 0
0.896875 0.272656 0
1.01875 0.20625 0
0.955078 0.205371 0
0.891406 0.204492 0
1.0125 0.1375 0
0.949219 0.136914 0
0.885937 0.136328 0
0.896875 0.272656 0
0.832812 0.271484 0
0.76875 0.270313 0
0.891406 0.204492 0
0.827734 0.203613 0
0.764062 0.202734 0
0.885937 0.136328 0
0.822656 0.135742 0
0.759375 0.135156 0
1.0125 0.1375 0
0.949219 0.136914 0
0.885937 0.136328 0
1.00625 0.06875 0
0.943359 0.068457 0
0.880469 0.0681641 0
1 0 0
0.9375 0 0
0.875 0 0
0.885937 0.136328 0
0.822656 0.135742 0
0.759375 0.135156 0
0.880469 0.0681641 0
0.817578 0.0678711 0
0.754687 0.0675781 0
0.875 0 0
0.8125 0 0
0.75 0 0
0.76875 0.270313 0
0.704687 0.269141 0
0.640625 0.267969 0
0.764062 0.202734 0
0.700391 0.201855 0
0.636719 0.200977 0
0.759375 0.135156 0
0.696094 0.13457 0
0.632812 0.133984 0
0.640625 0.267969 0
0.576562 0.266797 0
0.5125 0.265625 0
0.636719 0.200977 0
0.573047 0.200098 0
0.509375 0.199219 0
0.632812 0.133984 0
0.569531 0.133398 0
0.50625 0.132812 0
0.759375 0.135156 0
0.696094 0.13457 0
0.632812 0.133984 0
0.754687 0.0675781 0
0.691797 0.0672852 0
0.628906 0.0669922 0
0.75 0 0
0.6875 0 0
0.625 0 0
0.632812 0.133984 0
0.569531 0.133398 0
0.50625 0.132812 0
0.628906 0.0669922 0
0.566016 0.0666992 0
0.503125 0.0664062 0
0.625 0 0
0.5625 0 0
0.5 0 0
0.525 0.53125 0
0.459375 0.528906 0
0.39375 0.526563 0
0.521875 0.464844 0
0.456641 0.462793 0
0.391406 0.460742 0
0.51875 0.398438 0
0.453906 0.39668 0
0.389063 0.394922 0
0.39375 0.526563 0
0.328125 0.524219 0
0.2625 0.521875 0
0.391406 0.460742 0
0.326172 0.458691 0
0.260938 0.456641 0
0.389063 0.394922 0
0.324219 0.393164 0
0.259375 0.391406 0
0.51875 0.398438 0
0.453906 0.39668 0
0.389063 0.394922 0
0.515625 0.332031 0
0.451172 0.330566 0
0.386719 0.329102 0
0.5125 0.265625 0
0.448437 0.264453 0
0.384375 0.263281 0
0.389063 0.394922 0
0.324219 0.393164 0
0.259375 0.391406 0
0.386719 0.329102 0
0.322266 0.327637 0
0.257812 0.326172 0
0.384375 0.263281 0
0.320312 0.262109 0
0.25625 0.260937 0
0.2625 0.521875 0
0.196875 0.519531 0
0.13125 0.517187 0
0.260938 0.456641 0
0.195703 0.45459 0
0.130469 0.452539 0
0.259375 0.391406 0
0.194531 0.389648 0
0.129688 0.387891 0
0.13125 0.517187 0
0.065625 0.514844 0
0 0.5125 0
0.130469 0.452539 0
0.0652344 0.450488 0
0 0.448437 0
0.129688 0.387891 0
0.0648438 0.386133 0
0 0.384375 0
0.259375 0.391406 0
0.194531 0.389648 0
0.129688 0.387891 0
0.257812 0.326172 0
0.193359 0.324707 0
0.128906 0.323242 0
0.25625 0.260937 0
0.192187 0.259766 0
0.128125 0.258594 0
0.129688 0.387891 0
0.0648438 0.386133 0
0 0.384375 0
0.128906 0.323242 0
0.0644531 0.321777 0
0 0.320312 0
0.128125 0.258594 0
0.0640625 0.257422 0
0 0.25625 0
0.5125 0.265625 0
0.448437 0.264453 0
0.384375 0.263281 0
0.509375 0.199219 0
0.445703 0.19834 0
0.382031 0.197461 0
0.50625 0.132812 0
0.442969 0.132227 0
0.379688 0.131641 0
0.384375 0.263281 0
0.320312 0.262109 0
0.25625 0.260937 0
0.382031 0.197461 0
0.318359 0.196582 0
0.254687 0.195703 0
[...]
POINT_DATA 34560
VECTORS v double
1.19048 -0.220305 0
1.18197 -0.193292 0
1.17504 -0.169596 0
1.15987 -0.209416 0
1.14911 -0.185363 0
1.14044 -0.163377 0
1.12453 -0.197478 0
1.11224 -0.175547 0
1.10167 -0.155333 0
1.17504 -0.169596 0
1.16922 -0.147811 0
1.16463 -0.128609 0
1.14044 -0.163377 0
1.13253 -0.143262 0
1.12632 -0.125198 0
1.10167 -0.155333 0
1.09217 -0.136773 0
1.0842 -0.119914 0
1.12453 -0.197478 0
1.11224 -0.175547 0
1.10167 -0.155333 0
1.08301 -0.182968 0
1.06924 -0.163396 0
1.05728 -0.145228 0
1.03539 -0.168538 0
1.02074 -0.151071 0
1.00775 -0.134716 0
1.10167 -0.155333 0
1.09217 -0.136773 0
1.0842 -0.119914 0
1.05728 -0.145228 0
1.04643 -0.128408 0
1.03713 -0.113031 0
1.00775 -0.134716 0
0.99597 -0.119484 0
0.985668 -0.105456 0
1.16463 -0.128609 0
1.16035 -0.111289 0
1.15694 -0.096002 0
1.12632 -0.125198 0
1.12025 -0.108825 0
1.11545 -0.0942338 0
1.0842 -0.119914 0
1.0767 -0.104593 0
1.07041 -0.0908061 0
1.15694 -0.096002 0
1.15343 -0.0823052 0
1.15047 -0.0701586 0
1.11545 -0.0942338 0
1.11049 -0.0810596 0
1.10639 -0.0693022 0
1.07041 -0.0908061 0
1.06424 -0.0783214 0
1.05899 -0.0670948 0
1.0842 -0.119914 0
1.0767 -0.104593 0
1.07041 -0.0908061 0
1.03713 -0.113031 0
1.02845 -0.0989403 0
1.02101 -0.0861864 0
0.985668 -0.105456 0
0.976097 -0.0925406 0
0.96775 -0.0807806 0
1.07041 -0.0908061 0
1.06424 -0.0783214 0
1.05899 -0.0670948 0
1.02101 -0.0861864 0
1.01388 -0.0745607 0
1.0077 -0.0640476 0
0.96775 -0.0807806 0
0.959857 -0.0700201 0
0.952924 -0.0602446 0
1.03539 -0.168538 0
1.02074 -0.151071 0
1.00775 -0.134716 0
0.982383 -0.153172 0
0.967078 -0.137724 0
0.953366 -0.123169 0
0.92447 -0.137856 0
0.908742 -0.124239 0
0.894498 -0.111336 0
1.00775 -0.134716 0
0.99597 -0.119484 0
0.985668 -0.105456 0
0.953366 -0.123169 0
0.940861 -0.109527 0
0.929781 -0.0968997 0
0.894498 -0.111336 0
0.881473 -0.0991933 0
0.869808 -0.087899 0
0.92447 -0.137856 0
0.908742 -0.124239 0
0.894498 -0.111336 0
0.861506 -0.121658 0
0.845495 -0.109847 0
0.830923 -0.0986151 0
0.79375 -0.105837 0
0.777663 -0.0956869 0
0.762939 -0.0859954 0
0.894498 -0.111336 0
0.881473 -0.0991933 0
0.869808 -0.087899 0
0.830923 -0.0986151 0
0.817554 -0.0880009 0
0.805507 -0.0780921 0
0.762939 -0.0859954 0
0.74941 -0.0768094 0
0.737151 -0.0682071 0
0.985668 -0.105456 0
0.976097 -0.0925406 0
0.96775 -0.0807806 0
0.929781 -0.0968997 0
0.919524 -0.0852203 0
0.910462 -0.0745377 0
0.869808 -0.087899 0
0.859039 -0.0774178 0
0.849434 -0.0677949 0
0.96775 -0.0807806 0
0.959857 -0.0700201 0
0.952924 -0.0602446 0
0.910462 -0.0745377 0
0.901978 -0.0647289 0
0.894459 -0.0557878 0
0.849434 -0.0677949 0
0.840507 -0.0589406 0
0.832542 -0.0508497 0
0.869808 -0.087899 0
0.859039 -0.0774178 0
0.849434 -0.0677949 0
0.805507 -0.0780921 0
0.794399 -0.0688653 0
0.784436 -0.0603699 0
0.737151 -0.0682071 0
0.725866 -0.0601818 0
0.715699 -0.0527773 0
0.849434 -0.0677949 0
0.840507 -0.0589406 0
0.832542 -0.0508497 0
0.784436 -0.0603699 0
0.775222 -0.0525364 0
0.766969 -0.0453675 0
0.715699 -0.0527773 0
0.706341 -0.0459464 0
0.697934 -0.0396914 0
1.15047 -0.0701586 0
1.14727 -0.0592033 0
1.1444 -0.0493349 0
1.10639 -0.0693022 0
1.1021 -0.058625 0
1.09838 -0.0489605 0
1.05899 -0.0670948 0
1.05375 -0.0568646 0
1.04919 -0.0475554 0
1.1444 -0.0493349 0
1.14123 -0.0402338 0
1.13821 -0.0317848 0
1.09838 -0.0489605 0
1.09444 -0.0400012 0
1.09085 -0.0316511 0
1.04919 -0.0475554 0
1.04458 -0.0388964 0
1.04044 -0.0307932 0
1.05899 -0.0670948 0
1.05375 -0.0568646 0
1.04919 -0.0475554 0
1.0077 -0.0640476 0
1.00173 -0.0544165 0
0.996472 -0.0456133 0
0.952924 -0.0602446 0
0.946348 -0.051265 0
0.940531 -0.0430278 0
1.04919 -0.0475554 0
1.04458 -0.0388964 0
1.04044 -0.0307932 0
0.996472 -0.0456133 0
0.991351 -0.0373905 0
0.986772 -0.029662 0
0.940531 -0.0430278 0
0.934989 -0.0353144 0
0.930052 -0.0280434 0
1.13821 -0.0317848 0
1.13497 -0.0236878 0
1.13179 -0.0158301 0
1.09085 -0.0316511 0
1.08714 -0.0236297 0
1.08368 -0.015826 0
1.04044 -0.0307932 0
1.03633 -0.0229859 0
1.03259 -0.0153784 0
1.13179 -0.0158301 0
1.12839 -0.00795122 0
1.125 0 0
1.08368 -0.015826 0
1.08009 -0.00798856 0
1.07666 0 0
1.03259 -0.0153784 0
1.02885 -0.00773559 0
1.02539 0 0
1.04044 -0.0307932 0
1.03633 -0.0229859 0
1.03259 -0.0153784 0
0.986772 -0.029662 0
0.98238 -0.0221869 0
0.978436 -0.0148828 0
0.930052 -0.0280434 0
0.925425 -0.0209938 0
0.921323 -0.0140867 0
1.03259 -0.0153784 0
1.02885 -0.00773559 0
1.02539 0 0
0.978436 -0.0148828 0
0.974626 -0.00752058 0
0.971191 0 0
0.921323 -0.0140867 0
0.917464 -0.00710855 0
0.914062 0 0
0.952924 -0.0602446 0
0.946348 -0.051265 0
0.940531 -0.0430278 0
0.894459 -0.0557878 0
0.88742 -0.0475532 0
0.881169 -0.0399804 0
0.832542 -0.0508497 0
0.825158 -0.0433912 0
0.818582 -0.0365228 0
0.940531 -0.0430278 0
0.934989 -0.0353144 0
0.930052 -0.0280434 0
0.881169 -0.0399804 0
0.875317 -0.0328728 0
0.870118 -0.0261567 0
0.818582 -0.0365228 0
0.812505 -0.0300717 0
0.807122 -0.0239665 0
0.832542 -0.0508497 0
0.825158 -0.0433912 0
0.818582 -0.0365228 0
0.766969 -0.0453675 0
0.759373 -0.0387537 0
0.7526 -0.0326612 0
0.697934 -0.0396914 0
0.690244 -0.0339266 0
0.683382 -0.0286212 0
0.818582 -0.0365228 0
0.812505 -0.0300717 0
0.807122 -0.0239665 0
0.7526 -0.0326612 0
0.746405 -0.0269356 0
0.740932 -0.0215123 0
0.683382 -0.0286212 0
0.677156 -0.0236428 0
0.671672 -0.0189288 0
0.930052 -0.0280434 0
0.925425 -0.0209938 0
0.921323 -0.0140867 0
0.870118 -0.0261567 0
0.86534 -0.0196235 0
0.861152 -0.0132007 0
0.807122 -0.0239665 0
0.802252 -0.0180135 0
0.798024 -0.0121422 0
0.921323 -0.0140867 0
0.917464 -0.00710855 0
0.914062 0 0
0.861152 -0.0132007 0
0.857312 -0.00668421 0
0.854004 0 0
0.798024 -0.0121422 0
0.794225 -0.00615926 0
0.791016 0 0
0.807122 -0.0239665 0
0.802252 -0.0180135 0
0.798024 -0.0121422 0
0.740932 -0.0215123 0
0.736045 -0.0162084 0
0.731845 -0.0109574 0
0.671672 -0.0189288 0
0.666828 -0.0143097 0
0.662704 -0.00971807 0
0.798024 -0.0121422 0
0.794225 -0.00615926 0
0.791016 0 0
0.731845 -0.0109574 0
0.728148 -0.0055731 0
0.725098 0 0
0.662704 -0.00971807 0
0.659136 -0.00497441 0
0.65625 0 0
0.79375 -0.105837 0
0.777663 -0.0956869 0
0.762939 -0.0859954 0
0.721385 -0.0894838 0
0.705299 -0.0809435 0
0.690544 -0.0727757 0
0.644346 -0.073542 0
0.628405 -0.0665287 0
0.61375 -0.0598111 0
0.762939 -0.0859954 0
0.74941 -0.0768094 0
0.737151 -0.0682071 0
0.690544 -0.0727757 0
0.676965 -0.0650197 0
0.664633 -0.0577467 0
0.61375 -0.0598111 0
0.600271 -0.0534271 0
0.588013 -0.047437 0
0.644346 -0.073542 0
0.628405 -0.0665287 0
0.61375 -0.0598111 0
0.56231 -0.0572187 0
0.546628 -0.0517114 0
0.532231 -0.0464438 0
0.473939 -0.0415692 0
0.458889 -0.0375231 0
0.445096 -0.0336622 0
0.61375 -0.0598111 0
0.600271 -0.0534271 0
0.588013 -0.047437 0
0.532231 -0.0464438 0
0.519004 -0.041443 0
0.506993 -0.0367583 0
0.445096 -0.0336622 0
0.432466 -0.030004 0
0.421027 -0.0265879 0
0.737151 -0.0682071 0
0.725866 -0.0601818 0
0.715699 -0.0527773 0
0.664633 -0.0577467 0
0.653301 -0.0509544 0
0.643074 -0.0446833 0
0.588013 -0.047437 0
0.576781 -0.0418429 0
0.566642 -0.0366794 0
0.715699 -0.0527773 0
0.706341 -0.0459464 0
0.697934 -0.0396914 0
0.643074 -0.0446833 0
0.633702 -0.0388976 0
0.62528 -0.0336028 0
0.566642 -0.0366794 0
0.557397 -0.0319213 0
0.549098 -0.027573 0
0.588013 -0.047437 0
0.576781 -0.0418429 0
0.566642 -0.0366794 0
0.506993 -0.0367583 0
0.496027 -0.0323903 0
0.486152 -0.0283673 0
0.421027 -0.0265879 0
0.410632 -0.0234111 0
0.401303 -0.0204954 0
0.566642 -0.0366794 0
0.557397 -0.0319213 0
0.549098 -0.027573 0
0.486152 -0.0283673 0
0.477197 -0.0246681 0
0.469187 -0.0212969 0
0.401303 -0.0204954 0
0.392896 -0.0178226 0
0.385408 -0.0153961 0
0.473939 -0.0415692 0
0.458889 -0.0375231 0
0.445096 -0.0336622 0
0.376964 -0.0263616 0
0.363217 -0.0237273 0
0.350689 -0.0212298 0
0.267884 -0.013304 0
0.256758 -0.0119609 0
0.246674 -0.0106974 0
0.445096 -0.0336622 0
0.432466 -0.030004 0
0.421027 -0.0265879 0
0.350689 -0.0212298 0
0.339264 -0.0188764 0
0.328971 -0.0166936 0
0.246674 -0.0106974 0
0.237528 -0.00950752 0
0.22933 -0.00841266 0
0.267884 -0.013304 0
0.256758 -0.0119609 0
0.246674 -0.0106974 0
0.143318 -0.00369076 0
0.136682 -0.00329883 0
0.130718 -0.0029399 0
0 0 0
0 0 0
0 0 0
0.246674 -0.0106974 0
0.237528 -0.00950752 0
0.22933 -0.00841266 0
0.130718 -0.0029399 0
0.125315 -0.00260049 0
0.120498 -0.00229713 0
0 0 0
0 0 0
0 0 0
0.421027 -0.0265879 0
0.410632 -0.0234111 0
0.401303 -0.0204954 0
0.328971 -0.0166936 0
0.319666 -0.0146756 0
0.311356 -0.012836 0
0.22933 -0.00841266 0
0.221957 -0.00740277 0
0.215398 -0.00648953 0
0.401303 -0.0204954 0
0.392896 -0.0178226 0
0.385408 -0.0153961 0
0.311356 -0.012836 0
0.30391 -0.0111583 0
0.29731 -0.00964502 0
0.215398 -0.00648953 0
0.209544 -0.00565859 0
0.204368 -0.00491497 0
0.22933 -0.00841266 0
0.221957 -0.00740277 0
0.215398 -0.00648953 0
0.120498 -0.00229713 0
0.116167 -0.00201618 0
0.11232 -0.00176941 0
0 0 0
0 0 0
0 0 0
0.215398 -0.00648953 0
0.209544 -0.00565859 0
0.204368 -0.00491497 0
0.11232 -0.00176941 0
0.108881 -0.00154277 0
0.105831 -0.00134586 0
0 0 0
0 0 0
0 0 0
0.697934 -0.0396914 0
0.690244 -0.0339266 0
0.683382 -0.0286212 0
0.62528 -0.0336028 0
0.617619 -0.028729 0
0.61079 -0.0242535 0
0.549098 -0.027573 0
0.541592 -0.0235811 0
0.534915 -0.0199274 0
0.683382 -0.0286212 0
0.677156 -0.0236428 0
0.671672 -0.0189288 0
0.61079 -0.0242535 0
0.604638 -0.0200618 0
0.599235 -0.0160984 0
0.534915 -0.0199274 0
0.528938 -0.0165189 0
0.523706 -0.0133044 0
0.549098 -0.027573 0
0.541592 -0.0235811 0
0.534915 -0.0199274 0
0.469187 -0.0212969 0
0.461987 -0.0182096 0
0.455608 -0.0153952 0
0.385408 -0.0153961 0
0.378721 -0.013181 0
0.372823 -0.01117 0
0.534915 -0.0199274 0
0.528938 -0.0165189 0
0.523706 -0.0133044 0
0.455608 -0.0153952 0
0.449934 -0.0127785 0
0.444989 -0.0103185 0
0.372823 -0.01117 0
0.367611 -0.00930679 0
0.36309 -0.00756037 0
0.671672 -0.0189288 0
0.666828 -0.0143097 0
0.662704 -0.00971807 0
0.599235 -0.0160984 0
0.594509 -0.0122067 0
0.590524 -0.00832177 0
0.523706 -0.0133044 0
0.519166 -0.0101454 0
0.515372 -0.00697695 0
0.662704 -0.00971807 0
0.659136 -0.00497441 0
0.65625 0 0
0.590524 -0.00832177 0
0.587137 -0.00426855 0
0.584473 0 0
0.515372 -0.00697695 0
0.5122 -0.00363089 0
0.509766 0 0
0.523706 -0.0133044 0
0.519166 -0.0101454 0
0.515372 -0.00697695 0
0.444989 -0.0103185 0
0.440724 -0.00789669 0
0.437188 -0.00545944 0
0.36309 -0.00756037 0
0.359207 -0.00583956 0
0.356009 -0.00409453 0
0.515372 -0.00697695 0
0.5122 -0.00363089 0
0.509766 0 0
0.437188 -0.00545944 0
0.434283 -0.00284684 0
0.432129 0 0
0.356009 -0.00409453 0
0.35342 -0.00219394 0
0.351562 0 0
0.385408 -0.0153961 0
0.378721 -0.013181 0
0.372823 -0.01117 0
0.29731 -0.00964502 0
0.291447 -0.00826775 0
0.286299 -0.00702289 0
0.204368 -0.00491497 0
0.199782 -0.00423883 0
0.195759 -0.00363013 0
0.372823 -0.01117 0
0.367611 -0.00930679 0
0.36309 -0.00756037 0
0.286299 -0.00702289 0
0.281773 -0.00586901 0
0.277866 -0.00478814 0
0.195759 -0.00363013 0
0.192227 -0.00306394 0
0.18918 -0.00253491 0
0.204368 -0.00491497 0
0.199782 -0.00423883 0
0.195759 -0.00363013 0
0.105831 -0.00134586 0
0.103117 -0.00116463 0
0.100724 -0.00100472 0
0 0 0
0 0 0
0 0 0
0.195759 -0.00363013 0
0.192227 -0.00306394 0
0.18918 -0.00253491 0
0.100724 -0.00100472 0
0.0986049 -0.000849801 0
0.0967652 -0.000707907 0
0 0 0
0 0 0
0 0 0
0.36309 -0.00756037 0
0.359207 -0.00583956 0
0.356009 -0.00409453 0
0.277866 -0.00478814 0
0.274519 -0.003712 0
0.271781 -0.00261233 0
0.18918 -0.00253491 0
0.186574 -0.0020051 0
0.184451 -0.00144805 0
0.356009 -0.00409453 0
0.35342 -0.00219394 0
0.351562 0 0
0.271781 -0.00261233 0
0.269584 -0.00138377 0
0.268066 0 0
0.184451 -0.00144805 0
0.182765 -0.000815165 0
0.181641 0 0
0.18918 -0.00253491 0
0.186574 -0.0020051 0
0.184451 -0.00144805 0
0.0967652 -0.000707907 0
0.0951743 -0.000563134 0
0.0939088 -0.000403687 0
0 0 0
0 0 0
0 0 0
0.184451 -0.00144805 0
0.182765 -0.000815165 0
0.181641 0 0
0.0939088 -0.000403687 0
0.0928875 -0.000190838 0
0.0922852 0 0
0 0 0
0 0 0
0 0 0
1.59143 -0.44625 0
1.55508 -0.457005 0
1.5167 -0.463232 0
1.53817 -0.401096 0
1.50445 -0.41083 0
1.46921 -0.416593 0
1.48003 -0.360294 0
1.44965 -0.369213 0
1.41793 -0.374763 0
1.5167 -0.463232 0
1.47868 -0.464117 0
1.43972 -0.460199 0
1.46921 -0.416593 0
1.43429 -0.418193 0
1.39869 -0.415647 0
1.41793 -0.374763 0
1.38656 -0.376894 0
1.35463 -0.375434 0
1.48003 -0.360294 0
1.44965 -0.369213 0
1.41793 -0.374763 0
1.42335 -0.324724 0
1.39543 -0.331841 0
1.36645 -0.336209 0
1.36291 -0.289637 0
1.33625 -0.29582 0
1.30875 -0.29968 0
1.41793 -0.374763 0
1.38656 -0.376894 0
1.35463 -0.375434 0
1.36645 -0.336209 0
1.33759 -0.33775 0
1.30823 -0.336371 0
1.30875 -0.29968 0
1.28146 -0.301199 0
1.25384 -0.300265 0
1.43972 -0.460199 0
1.40388 -0.451601 0
1.36841 -0.438546 0
1.39869 -0.415647 0
1.36568 -0.409094 0
1.33306 -0.399041 0
1.35463 -0.375434 0
1.32471 -0.37065 0
1.29513 -0.362679 0
1.36841 -0.438546 0
1.33728 -0.422398 0
1.30753 -0.403097 0
1.33306 -0.399041 0
1.30405 -0.385952 0
1.27631 -0.370192 0
1.29513 -0.362679 0
1.26835 -0.351962 0
1.24264 -0.338749 0
1.35463 -0.375434 0
1.32471 -0.37065 0
1.29513 -0.362679 0
1.30823 -0.336371 0
1.28035 -0.332239 0
1.25266 -0.325458 0
1.25384 -0.300265 0
1.22747 -0.29702 0
1.2014 -0.291536 0
1.29513 -0.362679 0
1.26835 -0.351962 0
1.24264 -0.338749 0
1.25266 -0.325458 0
1.22721 -0.316414 0
1.20263 -0.305273 0
1.2014 -0.291536 0
1.17722 -0.284091 0
1.15391 -0.274811 0
1.36291 -0.289637 0
1.33625 -0.29582 0
1.30875 -0.29968 0
1.29859 -0.257631 0
1.27325 -0.263159 0
1.24725 -0.266648 0
1.23296 -0.226653 0
1.20869 -0.231642 0
1.18383 -0.234872 0
1.30875 -0.29968 0
1.28146 -0.301199 0
1.25384 -0.300265 0
1.24725 -0.266648 0
1.2215 -0.268091 0
1.19552 -0.267419 0
1.18383 -0.234872 0
1.15922 -0.236342 0
1.13442 -0.235986 0
1.23296 -0.226653 0
1.20869 -0.231642 0
1.18383 -0.234872 0
1.16537 -0.197069 0
1.1418 -0.201424 0
1.11773 -0.204267 0
1.09483 -0.168332 0
1.0717 -0.172242 0
1.04813 -0.174865 0
1.18383 -0.234872 0
1.15922 -0.236342 0
1.13442 -0.235986 0
1.11773 -0.204267 0
1.09389 -0.205617 0
1.0699 -0.20541 0
1.04813 -0.174865 0
1.02481 -0.176224 0
1.0014 -0.176257 0
1.25384 -0.300265 0
1.22747 -0.29702 0
1.2014 -0.291536 0
1.19552 -0.267419 0
1.17064 -0.26475 0
1.14604 -0.260132 0
1.13442 -0.235986 0
1.11055 -0.233902 0
1.08695 -0.230126 0
1.2014 -0.291536 0
1.17722 -0.284091 0
1.15391 -0.274811 0
1.14604 -0.260132 0
1.12304 -0.253799 0
1.10081 -0.245851 0
1.08695 -0.230126 0
1.06471 -0.224851 0
1.04319 -0.218159 0
1.13442 -0.235986 0
1.11055 -0.233902 0
1.08695 -0.230126 0
1.0699 -0.20541 0
1.04673 -0.203747 0
1.02383 -0.200635 0
1.0014 -0.176257 0
0.978716 -0.175048 0
0.956341 -0.172599 0
1.08695 -0.230126 0
1.06471 -0.224851 0
1.04319 -0.218159 0
1.02383 -0.200635 0
1.00213 -0.196248 0
0.981103 -0.190631 0
0.956341 -0.172599 0
0.935017 -0.169046 0
0.914362 -0.164428 0
1.30753 -0.403097 0
1.28265 -0.382167 0
1.26002 -0.359152 0
1.27631 -0.370192 0
1.25273 -0.352398 0
1.23113 -0.333095 0
1.24264 -0.338749 0
1.22019 -0.32369 0
1.19941 -0.307079 0
1.26002 -0.359152 0
1.24143 -0.335769 0
1.22535 -0.311744 0
1.23113 -0.333095 0
1.21302 -0.312924 0
1.1972 -0.292006 0
1.19941 -0.307079 0
1.18153 -0.28945 0
1.16559 -0.271032 0
1.24264 -0.338749 0
1.22019 -0.32369 0
1.19941 -0.307079 0
1.20263 -0.305273 0
1.18076 -0.292526 0
1.16034 -0.278359 0
1.15391 -0.274811 0
1.13291 -0.264058 0
1.11326 -0.252024 0
1.19941 -0.307079 0
1.18153 -0.28945 0
1.16559 -0.271032 0
1.16034 -0.278359 0
1.14247 -0.263266 0
1.12638 -0.247446 0
1.11326 -0.252024 0
1.09583 -0.239087 0
1.08 -0.225411 0
1.22535 -0.311744 0
1.21286 -0.28806 0
1.20309 -0.264458 0
1.1972 -0.292006 0
1.1845 -0.270894 0
1.17418 -0.249921 0
1.16559 -0.271032 0
1.15228 -0.252363 0
1.14107 -0.233665 0
1.20309 -0.264458 0
1.19569 -0.241838 0
1.19048 -0.220305 0
1.17418 -0.249921 0
1.16593 -0.229425 0
1.15987 -0.209416 0
1.14107 -0.233665 0
1.13182 -0.215287 0
1.12453 -0.197478 0
1.16559 -0.271032 0
1.15228 -0.252363 0
1.14107 -0.233665 0
1.12638 -0.247446 0
1.11271 -0.231309 0
1.10097 -0.21501 0
1.08 -0.225411 0
1.06632 -0.211322 0
1.05437 -0.196996 0
1.14107 -0.233665 0
1.13182 -0.215287 0
1.12453 -0.197478 0
1.10097 -0.21501 0
1.09108 -0.198845 0
1.08301 -0.182968 0
1.05437 -0.196996 0
1.04405 -0.182678 0
1.03539 -0.168538 0
1.15391 -0.274811 0
1.13291 -0.264058 0
1.11326 -0.252024 0
1.10081 -0.245851 0
1.08054 -0.236607 0
1.06147 -0.226214 0
1.04319 -0.218159 0
1.02336 -0.210308 0
1.00462 -0.201427 0
1.11326 -0.252024 0
1.09583 -0.239087 0
1.08 -0.225411 0
1.06147 -0.226214 0
1.04428 -0.214995 0
1.02854 -0.203079 0
1.00462 -0.201427 0
0.987564 -0.191779 0
0.971841 -0.181487 0
1.04319 -0.218159 0
1.02336 -0.210308 0
1.00462 -0.201427 0
0.981103 -0.190631 0
0.961562 -0.184008 0
0.943054 -0.17647 0
0.914362 -0.164428 0
0.895016 -0.158921 0
0.876649 -0.152608 0
1.00462 -0.201427 0
0.987564 -0.191779 0
0.971841 -0.181487 0
0.943054 -0.17647 0
0.926049 -0.168245 0
0.910289 -0.159428 0
0.876649 -0.152608 0
0.859633 -0.145672 0
0.843792 -0.138197 0
1.08 -0.225411 0
1.06632 -0.211322 0
1.05437 -0.196996 0
1.02854 -0.203079 0
1.01468 -0.190766 0
1.0024 -0.178218 0
0.971841 -0.181487 0
0.957829 -0.170801 0
0.945285 -0.159862 0
1.05437 -0.196996 0
1.04405 -0.182678 0
1.03539 -0.168538 0
1.0024 -0.178218 0
0.991625 -0.165655 0
0.982383 -0.153172 0
0.945285 -0.159862 0
0.934158 -0.148845 0
0.92447 -0.137856 0
0.971841 -0.181487 0
0.957829 -0.170801 0
0.945285 -0.159862 0
0.910289 -0.159428 0
0.896073 -0.150232 0
0.883227 -0.140775 0
0.843792 -0.138197 0
0.829359 -0.13036 0
0.816225 -0.122273 0
0.945285 -0.159862 0
0.934158 -0.148845 0
0.92447 -0.137856 0
0.883227 -0.140775 0
0.871694 -0.131218 0
0.861506 -0.121658 0
0.816225 -0.122273 0
0.804339 -0.114071 0
0.79375 -0.105837 0
1.09483 -0.168332 0
1.0717 -0.172242 0
1.04813 -0.174865 0
1.0221 -0.141022 0
0.999266 -0.144463 0
0.976046 -0.146806 0
0.94622 -0.114089 0
0.923576 -0.117157 0
0.900541 -0.119302 0
1.04813 -0.174865 0
1.02481 -0.176224 0
1.0014 -0.176257 0
0.976046 -0.146806 0
0.953064 -0.148071 0
0.930021 -0.148209 0
0.900541 -0.119302 0
0.877735 -0.120549 0
0.854873 -0.120851 0
0.94622 -0.114089 0
0.923576 -0.117157 0
0.900541 -0.119302 0
0.864681 -0.0879731 0
0.842381 -0.0906122 0
0.819666 -0.0924977 0
0.77087 -0.062736 0
0.749476 -0.06493 0
0.727562 -0.0665439 0
0.900541 -0.119302 0
0.877735 -0.120549 0
0.854873 -0.120851 0
0.819666 -0.0924977 0
0.797119 -0.0936508 0
0.774492 -0.0940354 0
0.727562 -0.0665439 0
0.705731 -0.067597 0
0.683751 -0.0680566 0
1.0014 -0.176257 0
0.978716 -0.175048 0
0.956341 -0.172599 0
0.930021 -0.148209 0
0.907632 -0.147292 0
0.885546 -0.145323 0
0.854873 -0.120851 0
0.8326 -0.120273 0
0.810627 -0.118813 0
0.956341 -0.172599 0
0.935017 -0.169046 0
0.914362 -0.164428 0
0.885546 -0.145323 0
0.864401 -0.142419 0
0.843896 -0.138608 0
0.810627 -0.118813 0
0.789509 -0.11657 0
0.769017 -0.113565 0
0.854873 -0.120851 0
0.8326 -0.120273 0
0.810627 -0.118813 0
0.774492 -0.0940354 0
0.752375 -0.0937072 0
0.73053 -0.0926604 0
0.683751 -0.0680566 0
0.662183 -0.067968 0
0.640832 -0.0673232 0
0.810627 -0.118813 0
0.789509 -0.11657 0
0.769017 -0.113565 0
0.73053 -0.0926604 0
0.709454 -0.0909779 0
0.688973 -0.0886734 0
0.640832 -0.0673232 0
0.620153 -0.066188 0
0.600023 -0.0645711 0
0.77087 -0.062736 0
0.749476 -0.06493 0
0.727562 -0.0665439 0
0.654141 -0.039528 0
0.634834 -0.0411419 0
0.614884 -0.0423536 0
0.497225 -0.019019 0
0.481932 -0.0199966 0
0.465901 -0.0207538 0
0.727562 -0.0665439 0
0.705731 -0.067597 0
0.683751 -0.0680566 0
0.614884 -0.0423536 0
0.594857 -0.0431765 0
0.574571 -0.0435847 0
0.465901 -0.0207538 0
0.449647 -0.0213063 0
0.433038 -0.0216284 0
0.497225 -0.019019 0
0.481932 -0.0199966 0
0.465901 -0.0207538 0
0.282196 -0.00542424 0
0.273416 -0.00573366 0
0.264016 -0.00596742 0
0 0 0
0 0 0
0 0 0
0.465901 -0.0207538 0
0.449647 -0.0213063 0
0.433038 -0.0216284 0
0.264016 -0.00596742 0
0.254396 -0.00614448 0
0.244431 -0.00623838 0
0 0 0
0 0 0
0 0 0
0.683751 -0.0680566 0
0.662183 -0.067968 0
0.640832 -0.0673232 0
0.574571 -0.0435847 0