# vtk DataFile Version 3.0
#This file was generated by the deal.II library on 2025/1/3 at 13:11:43
ASCII
DATASET UNSTRUCTURED_GRID

POINTS 34560 double
1.1 1.1 0
1.03125 1.09531 0
0.9625 1.09063 0
1.09375 1.03125 0
1.02539 1.02686 0
0.957031 1.02246 0
1.0875 0.9625 0
1.01953 0.958398 0
0.951563 0.954297 0
0.9625 1.09063 0
0.89375 1.08594 0
0.825 1.08125 0
0.957031 1.02246 0
0.888672 1.01807 0
0.820312 1.01367 0
0.951563 0.954297 0
0.883594 0.950195 0
0.815625 0.946094 0
1.0875 0.9625 0
1.01953 0.958398 0
0.951563 0.954297 0
1.08125 0.89375 0
1.01367 0.889941 0
0.946094 0.886133 0
1.075 0.825 0
1.00781 0.821484 0
0.940625 0.817969 0
0.951563 0.954297 0
0.883594 0.950195 0
0.815625 0.946094 0
0.946094 0.886133 0
0.878516 0.882324 0
0.810938 0.878516 0
0.940625 0.817969 0
0.873438 0.814453 0
0.80625 0.810937 0
0.825 1.08125 0
0.75625 1.07656 0
0.6875 1.07187 0
0.820312 1.01367 0
0.751953 1.00928 0
0.683594 1.00488 0
0.815625 0.946094 0
0.747656 0.941992 0
0.679688 0.937891 0
0.6875 1.07187 0
0.61875 1.06719 0
0.55 1.0625 0
0.683594 1.00488 0
0.615234 1.00049 0
0.546875 0.996094 0
0.679688 0.937891 0
0.611719 0.933789 0
0.54375 0.929688 0
0.815625 0.946094 0
0.747656 0.941992 0
0.679688 0.937891 0
0.810938 0.878516 0
0.743359 0.874707 0
0.675781 0.870898 0
0.80625 0.810937 0
0.739063 0.807422 0
0.671875 0.803906 0
0.679688 0.937891 0
0.611719 0.933789 0
0.54375 0.929688 0
0.675781 0.870898 0
0.608203 0.86709 0
0.540625 0.863281 0
0.671875 0.803906 0
0.604688 0.800391 0
0.5375 0.796875 0
1.075 0.825 0
1.00781 0.821484 0
0.940625 0.817969 0
1.06875 0.75625 0
1.00195 0.753027 0
0.935156 0.749805 0
1.0625 0.6875 0
0.996094 0.68457 0
0.929688 0.681641 0
0.940625 0.817969 0
0.873438 0.814453 0
0.80625 0.810937 0
0.935156 0.749805 0
0.868359 0.746582 0
0.801563 0.743359 0
0.929688 0.681641 0
0.863281 0.678711 0
0.796875 0.675781 0
1.0625 0.6875 0
0.996094 0.68457 0
0.929688 0.681641 0
1.05625 0.61875 0
0.990234 0.616113 0
0.924219 0.613477 0
1.05 0.55 0
0.984375 0.547656 0
0.91875 0.545313 0
0.929688 0.681641 0
0.863281 0.678711 0
0.796875 0.675781 0
0.924219 0.613477 0
0.858203 0.61084 0
0.792188 0.608203 0
0.91875 0.545313 0
0.853125 0.542969 0
0.7875 0.540625 0
0.80625 0.810937 0
0.739063 0.807422 0
0.671875 0.803906 0
0.801563 0.743359 0
0.734766 0.740137 0
0.667969 0.736914 0
0.796875 0.675781 0
0.730469 0.672852 0
0.664062 0.669922 0
0.671875 0.803906 0
0.604688 0.800391 0
0.5375 0.796875 0
0.667969 0.736914 0
0.601172 0.733691 0
0.534375 0.730469 0
0.664062 0.669922 0
0.597656 0.666992 0
0.53125 0.664062 0
0.796875 0.675781 0
0.730469 0.672852 0
0.664062 0.669922 0
0.792188 0.608203 0
0.726172 0.605566 0
0.660156 0.60293 0
0.7875 0.540625 0
0.721875 0.538281 0
0.65625 0.535937 0
0.664062 0.669922 0
0.597656 0.666992 0
0.53125 0.664062 0
0.660156 0.60293 0
0.594141 0.600293 0
0.528125 0.597656 0
0.65625 0.535937 0
0.590625 0.533594 0
0.525 0.53125 0
0.55 1.0625 0
0.48125 1.05781 0
0.4125 1.05313 0
0.546875 0.996094 0
0.478516 0.991699 0
0.410156 0.987305 0
0.54375 0.929688 0
0.475781 0.925586 0
0.407813 0.921484 0
0.4125 1.05313 0
0.34375 1.04844 0
0.275 1.04375 0
0.410156 0.987305 0
0.341797 0.98291 0
0.273438 0.978516 0
0.407813 0.921484 0
0.339844 0.917383 0
0.271875 0.913281 0
0.54375 0.929688 0
0.475781 0.925586 0
0.407813 0.921484 0
0.540625 0.863281 0
0.473047 0.859473 0
0.405469 0.855664 0
0.5375 0.796875 0
0.470313 0.793359 0
0.403125 0.789844 0
0.407813 0.921484 0
0.339844 0.917383 0
0.271875 0.913281 0
0.405469 0.855664 0
0.337891 0.851855 0
0.270313 0.848047 0
0.403125 0.789844 0
0.335938 0.786328 0
0.26875 0.782813 0
0.275 1.04375 0
0.20625 1.03906 0
0.1375 1.03437 0
0.273438 0.978516 0
0.205078 0.974121 0
0.136719 0.969727 0
0.271875 0.913281 0
0.203906 0.90918 0
0.135938 0.905078 0
0.1375 1.03437 0
0.06875 1.02969 0
0 1.025 0
0.136719 0.969727 0
0.0683594 0.965332 0
0 0.960937 0
0.135938 0.905078 0
0.0679688 0.900977 0
0 0.896875 0
0.271875 0.913281 0
0.203906 0.90918 0
0.135938 0.905078 0
0.270313 0.848047 0
0.202734 0.844238 0
0.135156 0.84043 0
0.26875 0.782813 0
0.201563 0.779297 0
0.134375 0.775781 0
0.135938 0.905078 0
0.0679688 0.900977 0
0 0.896875 0
0.135156 0.84043 0
0.0675781 0.836621 0
0 0.832812 0
0.134375 0.775781 0
0.0671875 0.772266 0
0 0.76875 0
0.5375 0.796875 0
0.470313 0.793359 0
0.403125 0.789844 0
0.534375 0.730469 0
0.467578 0.727246 0
0.400781 0.724023 0
0.53125 0.664062 0
0.464844 0.661133 0
0.398438 0.658203 0
0.403125 0.789844 0
0.335938 0.786328 0
0.26875 0.782813 0
0.400781 0.724023 0
0.333984 0.720801 0
0.267188 0.717578 0
0.398438 0.658203 0
0.332031 0.655273 0
0.265625 0.652344 0
0.53125 0.664062 0
0.464844 0.661133 0
0.398438 0.658203 0
0.528125 0.597656 0
0.462109 0.59502 0
0.396094 0.592383 0
0.525 0.53125 0
0.459375 0.528906 0
0.39375 0.526563 0
0.398438 0.658203 0
0.332031 0.655273 0
0.265625 0.652344 0
0.396094 0.592383 0
0.330078 0.589746 0
0.264062 0.587109 0
0.39375 0.526563 0
0.328125 0.524219 0
0.2625 0.521875 0
0.26875 0.782813 0
0.201563 0.779297 0
0.134375 0.775781 0
0.267188 0.717578 0
0.200391 0.714355 0
0.133594 0.711133 0
0.265625 0.652344 0
0.199219 0.649414 0
0.132812 0.646484 0
0.134375 0.775781 0
0.0671875 0.772266 0
0 0.76875 0
0.133594 0.711133 0
0.0667969 0.70791 0
0 0.704687 0
0.132812 0.646484 0
0.0664062 0.643555 0
0 0.640625 0
0.265625 0.652344 0
0.199219 0.649414 0
0.132812 0.646484 0
0.264062 0.587109 0
0.198047 0.584473 0
0.132031 0.581836 0
0.2625 0.521875 0
0.196875 0.519531 0
0.13125 0.517187 0
0.132812 0.646484 0
0.0664062 0.643555 0
0 0.640625 0
0.132031 0.581836 0
0.0660156 0.579199 0
0 0.576562 0
0.13125 0.517187 0
0.065625 0.514844 0
0 0.5125 0
1.05 0.55 0
0.984375 0.547656 0
0.91875 0.545313 0
1.04375 0.48125 0
0.978516 0.479199 0
0.913281 0.477148 0
1.0375 0.4125 0
0.972656 0.410742 0
0.907813 0.408984 0
0.91875 0.545313 0
0.853125 0.542969 0
0.7875 0.540625 0
0.913281 0.477148 0
0.848047 0.475098 0
0.782813 0.473047 0
0.907813 0.408984 0
0.842969 0.407227 0
0.778125 0.405469 0
1.0375 0.4125 0
0.972656 0.410742 0
0.907813 0.408984 0
1.03125 0.34375 0
0.966797 0.342285 0
0.902344 0.34082 0
1.025 0.275 0
0.960937 0.273828 0
0.896875 0.272656 0
0.907813 0.408984 0
0.842969 0.407227 0
0.778125 0.405469 0
0.902344 0.34082 0
0.837891 0.339355 0
0.773438 0.337891 0
0.896875 0.272656 0
0.832812 0.271484 0
0.76875 0.270313 0
0.7875 0.540625 0
0.721875 0.538281 0
0.65625 0.535937 0
0.782813 0.473047 0
0.717578 0.470996 0
0.652344 0.468945 0
0.778125 0.405469 0
0.713281 0.403711 0
0.648438 0.401953 0
0.65625 0.535937 0
0.590625 0.533594 0
0.525 0.53125 0
0.652344 0.468945 0
0.587109 0.466895 0
0.521875 0.464844 0
0.648438 0.401953 0
0.583594 0.400195 0
0.51875 0.398438 0
0.778125 0.405469 0
0.713281 0.403711 0
0.648438 0.401953 0
0.773438 0.337891 0
0.708984 0.336426 0
0.644531 0.334961 0
0.76875 0.270313 0
0.704687 0.269141 0
0.640625 0.267969 0
0.648438 0.401953 0
0.583594 0.400195 0
0.51875 0.398438 0
0.644531 0.334961 0
0.580078 0.333496 0
0.515625 0.332031 0
0.640625 0.267969 0
0.576562 0.266797 0
0.5125 0.265625 0
1.025 0.275 0
0.960937 0.273828 0
0.896875 0.272656 0
1.01875 0.20625 0
0.955078 0.205371 0
0.891406 0.204492 0
1.0125 0.1375 0
0.949219 0.136914 0
0.885937 0.136328 0
0.896875 0.272656 0
0.832812 0.271484 0
0.76875 0.270313 0
0.891406 0.204492 0
0.827734 0.203613 0
0.764062 0.202734 0
0.885937 0.136328 0
0.822656 0.135742 0
0.759375 0.135156 0
1.0125 0.1375 0
0.949219 0.136914 0
0.885937 0.136328 0
1.00625 0.06875 0
0.943359 0.068457 0
0.880469 0.0681641 0
1 0 0
0.9375 0 0
0.875 0 0
0.885937 0.136328 0
0.822656 0.135742 0
0.759375 0.135156 0
0.880469 0.0681641 0
0.817578 0.0678711 0
0.754687 0.0675781 0
0.875 0 0
0.8125 0 0
0.75 0 0
0.76875 0.270313 0
0.704687 0.269141 0
0.640625 0.267969 0
0.764062 0.202734 0
0.700391 0.201855 0
0.636719 0.200977 0
0.759375 0.135156 0
0.696094 0.13457 0
0.632812 0.133984 0
0.640625 0.267969 0
0.576562 0.266797 0
0.5125 0.265625 0
0.636719 0.200977 0
0.573047 0.200098 0
0.509375 0.199219 0
0.632812 0.133984 0
0.569531 0.133398 0
0.50625 0.132812 0
0.759375 0.135156 0
0.696094 0.13457 0
0.632812 0.133984 0
0.754687 0.0675781 0
0.691797 0.0672852 0
0.628906 0.0669922 0
0.75 0 0
0.6875 0 0
0.625 0 0
0.632812 0.133984 0
0.569531 0.133398 0
0.50625 0.132812 0
0.628906 0.0669922 0
0.566016 0.0666992 0
0.503125 0.0664062 0
0.625 0 0
0.5625 0 0
0.5 0 0
0.525 0.53125 0
0.459375 0.528906 0
0.39375 0.526563 0
0.521875 0.464844 0
0.456641 0.462793 0
0.391406 0.460742 0
0.51875 0.398438 0
0.453906 0.39668 0
0.389063 0.394922 0
0.39375 0.526563 0
0.328125 0.524219 0
0.2625 0.521875 0
0.391406 0.460742 0
0.326172 0.458691 0
0.260938 0.456641 0
0.389063 0.394922 0
0.324219 0.393164 0
0.259375 0.391406 0
0.51875 0.398438 0
0.453906 0.39668 0
0.389063 0.394922 0
0.515625 0.332031 0
0.451172 0.330566 0
0.386719 0.329102 0
0.5125 0.265625 0
0.448437 0.264453 0
0.384375 0.263281 0
0.389063 0.394922 0
0.324219 0.393164 0
0.259375 0.391406 0
0.386719 0.329102 0
0.322266 0.327637 0
0.257812 0.326172 0
0.384375 0.263281 0
0.320312 0.262109 0
0.25625 0.260937 0
0.2625 0.521875 0
0.196875 0.519531 0
0.13125 0.517187 0
0.260938 0.456641 0
0.195703 0.45459 0
0.130469 0.452539 0
0.259375 0.391406 0
0.194531 0.389648 0
0.129688 0.387891 0
0.13125 0.517187 0
0.065625 0.514844 0
0 0.5125 0
0.130469 0.452539 0
0.0652344 0.450488 0
0 0.448437 0
0.129688 0.387891 0
0.0648438 0.386133 0
0 0.384375 0
0.259375 0.391406 0
0.194531 0.389648 0
0.129688 0.387891 0
0.257812 0.326172 0
0.193359 0.324707 0
0.128906 0.323242 0
0.25625 0.260937 0
0.192187 0.259766 0
0.128125 0.258594 0
0.129688 0.387891 0
0.0648438 0.386133 0
0 0.384375 0
0.128906 0.323242 0
0.0644531 0.321777 0
0 0.320312 0
0.128125 0.258594 0
0.0640625 0.257422 0
0 0.25625 0
0.5125 0.265625 0
0.448437 0.264453 0
0.384375 0.263281 0
0.509375 0.199219 0
0.445703 0.19834 0
0.382031 0.197461 0
0.50625 0.132812 0
0.442969 0.132227 0
0.379688 0.131641 0
0.384375 0.263281 0
0.320312 0.262109 0
0.25625 0.260937 0
0.382031 0.197461 0
0.318359 0.196582 0
0.254687 0.195703 0
[...]
POINT_DATA 34560
VECTORS v double
1.20093 -0.2479 0
1.19083 -0.21874 0
1.18249 -0.192699 0
1.1701 -0.235182 0
1.15778 -0.209097 0
1.1477 -0.184934 0
1.13446 -0.221482 0
1.12063 -0.197665 0
1.1087 -0.17542 0
1.18249 -0.192699 0
1.17536 -0.168481 0
1.16965 -0.146741 0
1.1477 -0.184934 0
1.13851 -0.162539 0
1.13119 -0.142111 0
1.1087 -0.17542 0
1.09796 -0.154736 0
1.08892 -0.135667 0
1.13446 -0.221482 0
1.12063 -0.197665 0
1.1087 -0.17542 0
1.09276 -0.205248 0
1.07748 -0.18391 0
1.06417 -0.163851 0
1.04497 -0.189065 0
1.02881 -0.169977 0
1.01448 -0.151886 0
1.1087 -0.17542 0
1.09796 -0.154736 0
1.08892 -0.135667 0
1.06417 -0.163851 0
1.05209 -0.145056 0
1.04173 -0.127624 0
1.01448 -0.151886 0
1.00147 -0.134836 0
0.990124 -0.118914 0
1.16965 -0.146741 0
1.16436 -0.126878 0
1.1601 -0.109045 0
1.13119 -0.142111 0
1.12414 -0.123353 0
1.11849 -0.106376 0
1.08892 -0.135667 0
1.08045 -0.118115 0
1.07336 -0.102091 0
1.1601 -0.109045 0
1.15585 -0.0928955 0
1.1523 -0.0784044 0
1.11849 -0.106376 0
1.11283 -0.090895 0
1.10817 -0.0769307 0
1.07336 -0.102091 0
1.06651 -0.0874405 0
1.0607 -0.0741375 0
1.08892 -0.135667 0
1.08045 -0.118115 0
1.07336 -0.102091 0
1.04173 -0.127624 0
1.03209 -0.111456 0
1.02386 -0.0966142 0
0.990124 -0.118914 0
0.979615 -0.104078 0
0.970489 -0.0903824 0
1.07336 -0.102091 0
1.06651 -0.0874405 0
1.0607 -0.0741375 0
1.02386 -0.0966142 0
1.01606 -0.0829636 0
1.00934 -0.0705044 0
0.970489 -0.0903824 0
0.961939 -0.0777381 0
0.954488 -0.0661473 0
1.04497 -0.189065 0
1.02881 -0.169977 0
1.01448 -0.151886 0
0.991798 -0.171998 0
0.974988 -0.155066 0
0.959948 -0.138921 0
0.933798 -0.154966 0
0.916561 -0.140009 0
0.900989 -0.125667 0
1.01448 -0.151886 0
1.00147 -0.134836 0
0.990124 -0.118914 0
0.959948 -0.138921 0
0.946228 -0.123611 0
0.93411 -0.109244 0
0.900989 -0.125667 0
0.886743 -0.112011 0
0.874038 -0.0991363 0
0.933798 -0.154966 0
0.916561 -0.140009 0
0.900989 -0.125667 0
0.87082 -0.137032 0
0.853287 -0.124025 0
0.837372 -0.111506 0
0.80314 -0.119461 0
0.785504 -0.108263 0
0.769413 -0.0974403 0
0.900989 -0.125667 0
0.886743 -0.112011 0
0.874038 -0.0991363 0
0.837372 -0.111506 0
0.822769 -0.0995354 0
0.80967 -0.088206 0
0.769413 -0.0974403 0
0.754624 -0.087057 0
0.74129 -0.077197 0
0.990124 -0.118914 0
0.979615 -0.104078 0
0.970489 -0.0903824 0
0.93411 -0.109244 0
0.922922 -0.095796 0
0.913093 -0.0833262 0
0.874038 -0.0991363 0
0.862336 -0.0870435 0
0.851967 -0.0757868 0
0.970489 -0.0903824 0
0.961939 -0.0777381 0
0.954488 -0.0661473 0
0.913093 -0.0833262 0
0.903962 -0.0717731 0
0.895938 -0.0611458 0
0.851967 -0.0757868 0
0.842396 -0.0653315 0
0.833933 -0.0556872 0
0.874038 -0.0991363 0
0.862336 -0.0870435 0
0.851967 -0.0757868 0
0.80967 -0.088206 0
0.797618 -0.0775266 0
0.786882 -0.0675536 0
0.74129 -0.077197 0
0.729039 -0.0678809 0
0.71808 -0.0591591 0
0.851967 -0.0757868 0
0.842396 -0.0653315 0
0.833933 -0.0556872 0
0.786882 -0.0675536 0
0.77702 -0.0582662 0
0.768269 -0.0496811 0
0.71808 -0.0591591 0
0.708058 -0.0510263 0
0.699145 -0.043498 0
1.1523 -0.0784044 0
1.14861 -0.0653199 0
1.14533 -0.0535513 0
1.10817 -0.0769307 0
1.10339 -0.0642449 0
1.09928 -0.0527843 0
1.0607 -0.0741375 0
1.055 -0.0620136 0
1.05005 -0.0510101 0
1.14533 -0.0535513 0
1.14186 -0.0428718 0
1.1386 -0.0331607 0
1.09928 -0.0527843 0
1.09505 -0.0423387 0
1.09123 -0.0328046 0
1.05005 -0.0510101 0
1.04516 -0.0409517 0
1.0408 -0.0317407 0
1.0607 -0.0741375 0
1.055 -0.0620136 0
1.05005 -0.0510101 0
1.00934 -0.0705044 0
1.00292 -0.0590957 0
0.9973 -0.0486988 0
0.954488 -0.0661473 0
0.947473 -0.0555045 0
0.94131 -0.0457731 0
1.05005 -0.0510101 0
1.04516 -0.0409517 0
1.0408 -0.0317407 0
0.9973 -0.0486988 0
0.991912 -0.0391623 0
0.987122 -0.0303996 0
0.94131 -0.0457731 0
0.935517 -0.0368287 0
0.930381 -0.0285941 0
1.1386 -0.0331607 0
1.13518 -0.0241776 0
1.13186 -0.0157891 0
1.09123 -0.0328046 0
1.08735 -0.0239668 0
1.08374 -0.0156896 0
1.0408 -0.0317407 0
1.03654 -0.0231822 0
1.03265 -0.0151583 0
1.13186 -0.0157891 0
1.12842 -0.00775314 0
1.125 0 0
1.08374 -0.0156896 0
1.08011 -0.00774668 0
1.07666 0 0
1.03265 -0.0151583 0
1.02888 -0.00745772 0
1.02539 0 0
1.0408 -0.0317407 0
1.03654 -0.0231822 0
1.03265 -0.0151583 0
0.987122 -0.0303996 0
0.982573 -0.0222371 0
0.978488 -0.0145718 0
0.930381 -0.0285941 0
0.925609 -0.0209169 0
0.921371 -0.0137002 0
1.03265 -0.0151583 0
1.02888 -0.00745772 0
1.02539 0 0
0.978488 -0.0145718 0
0.974651 -0.00719944 0
0.971191 0 0
0.921371 -0.0137002 0
0.917489 -0.00675543 0
0.914062 0 0
0.954488 -0.0661473 0
0.947473 -0.0555045 0
0.94131 -0.0457731 0
0.895938 -0.0611458 0
0.888474 -0.0513615 0
0.881894 -0.0423922 0
0.833933 -0.0556872 0
0.826136 -0.0467949 0
0.819245 -0.0386295 0
0.94131 -0.0457731 0
0.935517 -0.0368287 0
0.930381 -0.0285941 0
0.881894 -0.0423922 0
0.875805 -0.0341337 0
0.870423 -0.0265209 0
0.819245 -0.0386295 0
0.812948 -0.0311077 0
0.807397 -0.0241712 0
0.833933 -0.0556872 0
0.826136 -0.0467949 0
0.819245 -0.0386295 0
0.768269 -0.0496811 0
0.760267 -0.0417535 0
0.75319 -0.0344666 0
0.699145 -0.043498 0
0.691049 -0.0365454 0
0.683891 -0.0301538 0
0.819245 -0.0386295 0
0.812948 -0.0311077 0
0.807397 -0.0241712 0
0.75319 -0.0344666 0
0.74679 -0.027751 0
0.741167 -0.0215604 0
0.683891 -0.0301538 0
0.677475 -0.0242703 0
0.671859 -0.018854 0
0.930381 -0.0285941 0
0.925609 -0.0209169 0
0.921371 -0.0137002 0
0.870423 -0.0265209 0
0.86551 -0.019416 0
0.861192 -0.0127319 0
0.807397 -0.0241712 0
0.802406 -0.0176993 0
0.798057 -0.0116111 0
0.921371 -0.0137002 0
0.917489 -0.00675543 0
0.914062 0 0
0.861192 -0.0127319 0
0.857335 -0.00629094 0
0.854004 0 0
0.798057 -0.0116111 0
0.794247 -0.00574036 0
0.791016 0 0
0.807397 -0.0241712 0
0.802406 -0.0176993 0
0.798057 -0.0116111 0
0.741167 -0.0215604 0
0.736175 -0.0157866 0
0.731867 -0.0103584 0
0.671859 -0.018854 0
0.66693 -0.0138122 0
0.662714 -0.00907827 0
0.798057 -0.0116111 0
0.794247 -0.00574036 0
0.791016 0 0
0.731867 -0.0103584 0
0.728168 -0.00512011 0
0.725098 0 0
0.662714 -0.00907827 0
0.659153 -0.00450685 0
0.65625 0 0
0.80314 -0.119461 0
0.785504 -0.108263 0
0.769413 -0.0974403 0
0.730987 -0.101321 0
0.713313 -0.0918786 0
0.69715 -0.0827314 0
0.654327 -0.0835522 0
0.63674 -0.075782 0
0.620615 -0.0682401 0
0.769413 -0.0974403 0
0.754624 -0.087057 0
0.74129 -0.077197 0
0.69715 -0.0827314 0
0.682268 -0.0739354 0
0.668818 -0.0655671 0
0.620615 -0.0682401 0
0.60577 -0.0609767 0
0.59233 -0.0540581 0
0.654327 -0.0835522 0
0.63674 -0.075782 0
0.620615 -0.0682401 0
0.572838 -0.0653107 0
0.555433 -0.059186 0
0.539482 -0.053245 0
0.484925 -0.0476814 0
0.468077 -0.0431548 0
0.452651 -0.0387726 0
0.620615 -0.0682401 0
0.60577 -0.0609767 0
0.59233 -0.0540581 0
0.539482 -0.053245 0
0.524804 -0.0475245 0
0.511526 -0.0420799 0
0.452651 -0.0387726 0
0.438489 -0.0345579 0
0.425702 -0.0305565 0
0.74129 -0.077197 0
0.729039 -0.0678809 0
0.71808 -0.0591591 0
0.668818 -0.0655671 0
0.65648 -0.057648 0
0.645426 -0.0502238 0
0.59233 -0.0540581 0
0.580033 -0.0475063 0
0.569013 -0.0413603 0
0.71808 -0.0591591 0
0.708058 -0.0510263 0
0.699145 -0.043498 0
0.645426 -0.0502238 0
0.63536 -0.0432948 0
0.626409 -0.0368778 0
0.569013 -0.0413603 0
0.559026 -0.0356256 0
0.550159 -0.0303164 0
0.59233 -0.0540581 0
0.580033 -0.0475063 0
0.569013 -0.0413603 0
0.511526 -0.0420799 0
0.499416 -0.0369282 0
0.488584 -0.032101 0
0.425702 -0.0305565 0
0.414091 -0.0267777 0
0.403739 -0.0232464 0
0.569013 -0.0413603 0
0.559026 -0.0356256 0
0.550159 -0.0303164 0
0.488584 -0.032101 0
0.478823 -0.0276028 0
0.47019 -0.0234452 0
0.403739 -0.0232464 0
0.394467 -0.0199638 0
0.386309 -0.0169388 0
0.484925 -0.0476814 0
0.468077 -0.0431548 0
0.452651 -0.0387726 0
0.387741 -0.0304329 0
0.372164 -0.0274492 0
0.357975 -0.0245781 0
0.276625 -0.0154036 0
0.263849 -0.0138613 0
0.252289 -0.0123893 0
0.452651 -0.0387726 0
0.438489 -0.0345579 0
0.425702 -0.0305565 0
0.357975 -0.0245781 0
0.344998 -0.0218304 0
0.333342 -0.0192377 0
0.252289 -0.0123893 0
0.241778 -0.0109803 0
0.232403 -0.00966112 0
0.276625 -0.0154036 0
0.263849 -0.0138613 0
0.252289 -0.0123893 0
0.147293 -0.00429871 0
0.139636 -0.00383831 0
0.132803 -0.00341103 0
0 0 0
0 0 0
0 0 0
0.252289 -0.0123893 0
0.241778 -0.0109803 0
0.232403 -0.00966112 0
0.132803 -0.00341103 0
0.126608 -0.00299796 0
0.121151 -0.00262164 0
0 0 0
0 0 0
0 0 0
0.425702 -0.0305565 0
0.414091 -0.0267777 0
0.403739 -0.0232464 0
0.333342 -0.0192377 0
0.322812 -0.0168027 0
0.313478 -0.014541 0
0.232403 -0.00966112 0
0.22399 -0.00842592 0
0.21658 -0.00728753 0
0.403739 -0.0232464 0
0.394467 -0.0199638 0
0.386309 -0.0169388 0
0.313478 -0.014541 0
0.305172 -0.0124501 0
0.297911 -0.010535 0
0.21658 -0.00728753 0
0.21003 -0.00623903 0
0.20434 -0.00528601 0
0.232403 -0.00966112 0
0.22399 -0.00842592 0
0.21658 -0.00728753 0
0.121151 -0.00262164 0
0.11627 -0.00226902 0
0.112014 -0.00195243 0
0 0 0
0 0 0
0 0 0
0.21658 -0.00728753 0
0.21003 -0.00623903 0
0.20434 -0.00528601 0
0.112014 -0.00195243 0
0.108264 -0.00166056 0
0.105024 -0.00140179 0
0 0 0
0 0 0
0 0 0
0.699145 -0.043498 0
0.691049 -0.0365454 0
0.683891 -0.0301538 0
0.626409 -0.0368778 0
0.618331 -0.0309523 0
0.611206 -0.0255085 0
0.550159 -0.0303164 0
0.542213 -0.0254198 0
0.53523 -0.0209279 0
0.683891 -0.0301538 0
0.677475 -0.0242703 0
0.671859 -0.018854 0
0.611206 -0.0255085 0
0.604873 -0.0205037 0
0.599358 -0.0159071 0
0.53523 -0.0209279 0
0.529077 -0.0168092 0
0.523752 -0.013038 0
0.550159 -0.0303164 0
0.542213 -0.0254198 0
0.53523 -0.0209279 0
0.47019 -0.0234452 0
0.462513 -0.0196172 0
0.455808 -0.0161132 0
0.386309 -0.0169388 0
0.379113 -0.014161 0
0.372874 -0.0116249 0
0.53523 -0.0209279 0
0.529077 -0.0168092 0
0.523752 -0.013038 0
0.455808 -0.0161132 0
0.449955 -0.0129076 0
0.444933 -0.00998257 0
0.372874 -0.0116249 0
0.367483 -0.00931018 0
0.362903 -0.00720488 0
0.671859 -0.018854 0
0.66693 -0.0138122 0
0.662714 -0.00907827 0
0.599358 -0.0159071 0
0.594569 -0.0116381 0
0.590513 -0.00764046 0
0.523752 -0.013038 0
0.519175 -0.00954918 0
0.515337 -0.00629268 0
0.662714 -0.00907827 0
0.659153 -0.00450685 0
0.65625 0 0
0.590513 -0.00764046 0
0.587149 -0.00377958 0
0.584473 0 0
0.515337 -0.00629268 0
0.512205 -0.00314788 0
0.509766 0 0
0.523752 -0.013038 0
0.519175 -0.00954918 0
0.515337 -0.00629268 0
0.444933 -0.00998257 0
0.44066 -0.00728536 0
0.437118 -0.00478279 0
0.362903 -0.00720488 0
0.359049 -0.0052711 0
0.355891 -0.00348131 0
0.515337 -0.00629268 0
0.512205 -0.00314788 0
0.509766 0 0
0.437118 -0.00478279 0
0.434277 -0.00236959 0
0.432129 0 0
0.355891 -0.00348131 0
0.353398 -0.00176361 0
0.351562 0 0
0.386309 -0.0169388 0
0.379113 -0.014161 0
0.372874 -0.0116249 0
0.297911 -0.010535 0
0.291559 -0.00878481 0
0.286095 -0.00719331 0
0.20434 -0.00528601 0
0.199396 -0.00441834 0
0.19517 -0.00363277 0
0.372874 -0.0116249 0
0.367483 -0.00931018 0
0.362903 -0.00720488 0
0.286095 -0.00719331 0
0.281421 -0.00574291 0
0.277493 -0.00442711 0
0.19517 -0.00363277 0
0.191581 -0.0029164 0
0.188591 -0.00226857 0
0.20434 -0.00528601 0
0.199396 -0.00441834 0
0.19517 -0.00363277 0
0.105024 -0.00140179 0
0.102218 -0.00116647 0
0.0998238 -0.00095693 0
0 0 0
0 0 0
0 0 0
0.19517 -0.00363277 0
0.191581 -0.0029164 0
0.188591 -0.00226857 0
0.0998238 -0.00095693 0
0.0977937 -0.000762679 0
0.0960986 -0.00059036 0
0 0 0
0 0 0
0 0 0
0.362903 -0.00720488 0
0.359049 -0.0052711 0
0.355891 -0.00348131 0
0.277493 -0.00442711 0
0.274228 -0.00321593 0
0.271592 -0.00209731 0
0.188591 -0.00226857 0
0.186136 -0.00167103 0
0.184186 -0.00110934 0
0.355891 -0.00348131 0
0.353398 -0.00176361 0
0.351562 0 0
0.271592 -0.00209731 0
0.269537 -0.00102044 0
0.268066 0 0
0.184186 -0.00110934 0
0.182688 -0.000572067 0
0.181641 0 0
0.188591 -0.00226857 0
0.186136 -0.00167103 0
0.184186 -0.00110934 0
0.0960986 -0.00059036 0
0.0947127 -0.000431073 0
0.0936382 -0.000277012 0
0 0 0
0 0 0
0 0 0
0.184186 -0.00110934 0
0.182688 -0.000572067 0
0.181641 0 0
0.0936382 -0.000277012 0
0.0928142 -0.000107119 0
0.0922852 0 0
0 0 0
0 0 0
0 0 0
1.63085 -0.483695 0
1.59126 -0.494202 0
1.55043 -0.499999 0
1.57895 -0.435201 0
1.54209 -0.445035 0
1.50424 -0.450695 0
1.52161 -0.390914 0
1.48812 -0.400224 0
1.45364 -0.405947 0
1.55043 -0.499999 0
1.50994 -0.500587 0
1.46906 -0.496323 0
1.50424 -0.450695 0
1.46676 -0.452154 0
1.42904 -0.44939 0
1.45364 -0.405947 0
1.41961 -0.408163 0
1.38535 -0.406668 0
1.52161 -0.390914 0
1.48812 -0.400224 0
1.45364 -0.405947 0
1.46534 -0.351975 0
1.43443 -0.359763 0
1.40271 -0.364574 0
1.4053 -0.313709 0
1.37577 -0.320709 0
1.3456 -0.32516 0
1.45364 -0.405947 0
1.41961 -0.408163 0
1.38535 -0.406668 0
1.40271 -0.364574 0
1.37122 -0.366398 0
1.3395 -0.365154 0
1.3456 -0.32516 0
1.3157 -0.3271 0
1.28566 -0.32642 0
1.46906 -0.496323 0
1.43128 -0.487392 0
1.39417 -0.473952 0
1.42904 -0.44939 0
1.39389 -0.442623 0
1.35939 -0.432285 0
1.38535 -0.406668 0
1.35316 -0.401799 0
1.32156 -0.393652 0
1.39417 -0.473952 0
1.36125 -0.457414 0
1.33005 -0.437731 0
1.35939 -0.432285 0
1.32844 -0.418864 0
1.29902 -0.402712 0
1.32156 -0.393652 0
1.29276 -0.382699 0
1.26524 -0.369172 0
1.38535 -0.406668 0
1.35316 -0.401799 0
1.32156 -0.393652 0
1.3395 -0.365154 0
1.3093 -0.361065 0
1.27952 -0.354213 0
1.28566 -0.32642 0
1.25692 -0.323314 0
1.22866 -0.317842 0
1.32156 -0.393652 0
1.29276 -0.382699 0
1.26524 -0.369172 0
1.27952 -0.354213 0
1.25197 -0.34502 0
1.22549 -0.333621 0
1.22866 -0.317842 0
1.2023 -0.310315 0
1.17697 -0.300838 0
1.4053 -0.313709 0
1.37577 -0.320709 0
1.3456 -0.32516 0
1.34107 -0.27859 0
1.31296 -0.285067 0
1.28431 -0.289282 0
1.27551 -0.244735 0
1.24861 -0.250739 0
1.22118 -0.254772 0
1.3456 -0.32516 0
1.3157 -0.3271 0
1.28566 -0.32642 0
1.28431 -0.289282 0
1.25598 -0.291273 0
1.22756 -0.290978 0
1.22118 -0.254772 0
1.19404 -0.256867 0
1.16682 -0.256966 0
1.27551 -0.244735 0
1.24861 -0.250739 0
1.22118 -0.254772 0
1.20812 -0.212398 0
1.18205 -0.217788 0
1.1555 -0.221469 0
1.13775 -0.181094 0
1.11226 -0.186018 0
1.0863 -0.189476 0
1.22118 -0.254772 0
1.19404 -0.256867 0
1.16682 -0.256966 0
1.1555 -0.221469 0
1.12919 -0.223487 0
1.1028 -0.223787 0
1.0863 -0.189476 0
1.06058 -0.191513 0
1.03479 -0.192075 0
1.28566 -0.32642 0
1.25692 -0.323314 0
1.22866 -0.317842 0
1.22756 -0.290978 0
1.20028 -0.288555 0
1.17344 -0.284048 0
1.16682 -0.256966 0
1.14056 -0.255203 0
1.11471 -0.251608 0
1.22866 -0.317842 0
1.2023 -0.310315 0
1.17697 -0.300838 0
1.17344 -0.284048 0
1.14822 -0.277719 0
1.12393 -0.269654 0
1.11471 -0.251608 0
1.09022 -0.246403 0
1.0666 -0.239655 0
1.16682 -0.256966 0
1.14056 -0.255203 0
1.11471 -0.251608 0
1.1028 -0.223787 0
1.07723 -0.222497 0
1.05205 -0.219624 0
1.03479 -0.192075 0
1.00975 -0.19127 0
0.985077 -0.189099 0
1.11471 -0.251608 0
1.09022 -0.246403 0
1.0666 -0.239655 0
1.05205 -0.219624 0
1.02807 -0.215366 0
1.00488 -0.209757 0
0.985077 -0.189099 0
0.961468 -0.18572 0
0.938618 -0.181162 0
1.33005 -0.437731 0
1.30348 -0.416345 0
1.27934 -0.392788 0
1.29902 -0.402712 0
1.27364 -0.384479 0
1.25042 -0.364633 0
1.26524 -0.369172 0
1.24093 -0.353731 0
1.21847 -0.336633 0
1.27934 -0.392788 0
1.25919 -0.368769 0
1.24158 -0.343962 0
1.25042 -0.364633 0
1.23065 -0.343846 0
1.21325 -0.322181 0
1.21847 -0.336633 0
1.19888 -0.318416 0
1.18136 -0.299278 0
1.26524 -0.369172 0
1.24093 -0.353731 0
1.21847 -0.336633 0
1.22549 -0.333621 0
1.2017 -0.320522 0
1.17951 -0.305888 0
1.17697 -0.300838 0
1.15396 -0.289796 0
1.13246 -0.277359 0
1.21847 -0.336633 0
1.19888 -0.318416 0
1.18136 -0.299278 0
1.17951 -0.305888 0
1.15986 -0.290232 0
1.14211 -0.273719 0
1.13246 -0.277359 0
1.11318 -0.263923 0
1.09565 -0.249625 0
1.24158 -0.343962 0
1.22754 -0.319352 0
1.21631 -0.29467 0
1.21325 -0.322181 0
1.19899 -0.300192 0
1.18718 -0.278186 0
1.18136 -0.299278 0
1.16647 -0.279761 0
1.15377 -0.260066 0
1.21631 -0.29467 0
1.20748 -0.270824 0
1.20093 -0.2479 0
1.18718 -0.278186 0
1.17749 -0.256517 0
1.1701 -0.235182 0
1.15377 -0.260066 0
1.14307 -0.24056 0
1.13446 -0.221482 0
1.18136 -0.299278 0
1.16647 -0.279761 0
1.15377 -0.260066 0
1.14211 -0.273719 0
1.1268 -0.256777 0
1.11354 -0.239539 0
1.09565 -0.249625 0
1.08029 -0.234804 0
1.0668 -0.219614 0
1.15377 -0.260066 0
1.14307 -0.24056 0
1.13446 -0.221482 0
1.11354 -0.239539 0
1.10217 -0.222316 0
1.09276 -0.205248 0
1.0668 -0.219614 0
1.05499 -0.204315 0
1.04497 -0.189065 0
1.17697 -0.300838 0
1.15396 -0.289796 0
1.13246 -0.277359 0
1.12393 -0.269654 0
1.10162 -0.26019 0
1.08065 -0.249459 0
1.0666 -0.239655 0
1.04468 -0.231645 0
1.02398 -0.222486 0
1.13246 -0.277359 0
1.11318 -0.263923 0
1.09565 -0.249625 0
1.08065 -0.249459 0
1.0616 -0.237797 0
1.04411 -0.225315 0
1.02398 -0.222486 0
1.005 -0.21246 0
0.987489 -0.20167 0
1.0666 -0.239655 0
1.04468 -0.231645 0
1.02398 -0.222486 0
1.00488 -0.209757 0
0.983208 -0.203041 0
0.962685 -0.195295 0
0.938618 -0.181162 0
0.917101 -0.17562 0
0.896672 -0.169165 0
1.02398 -0.222486 0
1.005 -0.21246 0
0.987489 -0.20167 0
0.962685 -0.195295 0
0.943703 -0.186763 0
0.926098 -0.177527 0
0.896672 -0.169165 0
0.877631 -0.161991 0
0.85989 -0.154173 0
1.09565 -0.249625 0
1.08029 -0.234804 0
1.0668 -0.219614 0
1.04411 -0.225315 0
1.02855 -0.212328 0
1.0147 -0.198981 0
0.987489 -0.20167 0
0.971726 -0.190384 0
0.957565 -0.178728 0
1.0668 -0.219614 0
1.05499 -0.204315 0
1.04497 -0.189065 0
1.0147 -0.198981 0
1.00242 -0.185509 0
0.991798 -0.171998 0
0.957565 -0.178728 0
0.94489 -0.166889 0
0.933798 -0.154966 0
0.987489 -0.20167 0
0.971726 -0.190384 0
0.957565 -0.178728 0
0.926098 -0.177527 0
0.910084 -0.16781 0
0.895576 -0.157721 0
0.85989 -0.154173 0
0.843606 -0.145899 0
0.828754 -0.137269 0
0.957565 -0.178728 0
0.94489 -0.166889 0
0.933798 -0.154966 0
0.895576 -0.157721 0
0.882452 -0.147431 0
0.87082 -0.137032 0
0.828754 -0.137269 0
0.815223 -0.128429 0
0.80314 -0.119461 0
1.13775 -0.181094 0
1.11226 -0.186018 0
1.0863 -0.189476 0
1.06522 -0.151425 0
1.04016 -0.155832 0
1.01467 -0.158981 0
0.989563 -0.122304 0
0.964867 -0.126255 0
0.939684 -0.129146 0
1.0863 -0.189476 0
1.06058 -0.191513 0
1.03479 -0.192075 0
1.01467 -0.158981 0
0.989374 -0.160911 0
0.964018 -0.161577 0
0.939684 -0.129146 0
0.914677 -0.131012 0
0.88958 -0.131814 0
0.989563 -0.122304 0
0.964867 -0.126255 0
0.939684 -0.129146 0
0.908202 -0.0942077 0
0.884036 -0.097616 0
0.859325 -0.100156 0
0.814138 -0.0672042 0
0.791086 -0.0700222 0
0.767354 -0.0721699 0
0.939684 -0.129146 0
0.914677 -0.131012 0
0.88958 -0.131814 0
0.859325 -0.100156 0
0.834706 -0.101858 0
0.809942 -0.102692 0
0.767354 -0.0721699 0
0.743605 -0.0736744 0
0.719614 -0.074505 0
1.03479 -0.192075 0
1.00975 -0.19127 0
0.985077 -0.189099 0
0.964018 -0.161577 0
0.939306 -0.161073 0
0.914936 -0.1594 0
0.88958 -0.131814 0
0.865042 -0.131635 0
0.840816 -0.13047 0
0.985077 -0.189099 0
0.961468 -0.18572 0
0.938618 -0.181162 0
0.914936 -0.1594 0
0.891507 -0.156695 0
0.868788 -0.152979 0
0.840816 -0.13047 0
0.817431 -0.128436 0
0.794719 -0.125546 0
0.88958 -0.131814 0
0.865042 -0.131635 0
0.840816 -0.13047 0
0.809942 -0.102692 0
0.785639 -0.102725 0
0.761595 -0.101953 0
0.719614 -0.074505 0
0.695964 -0.074718 0
0.672494 -0.0743042 0
0.840816 -0.13047 0
0.817431 -0.128436 0
0.794719 -0.125546 0
0.761595 -0.101953 0
0.738288 -0.10047 0
0.715604 -0.0982859 0
0.672494 -0.0743042 0
0.649644 -0.0733397 0
0.627351 -0.0718295 0
0.814138 -0.0672042 0
0.791086 -0.0700222 0
0.767354 -0.0721699 0
0.695817 -0.0424887 0
0.675098 -0.0445531 0
0.653548 -0.0461501 0
0.533418 -0.0205875 0
0.516976 -0.0218184 0
0.499604 -0.0227899 0
0.767354 -0.0721699 0
0.743605 -0.0736744 0
0.719614 -0.074505 0
0.653548 -0.0461501 0
0.63179 -0.0472997 0
0.609654 -0.0479753 0
0.499604 -0.0227899 0
0.481865 -0.0235242 0
0.463646 -0.0239923 0
0.533418 -0.0205875 0
0.516976 -0.0218184 0
0.499604 -0.0227899 0
0.305599 -0.00596848 0
0.295933 -0.00635882 0
0.285521 -0.00665565 0
0 0 0
0 0 0
0 0 0
0.499604 -0.0227899 0
0.481865 -0.0235242 0
0.463646 -0.0239923 0
0.285521 -0.00665565 0
0.274776 -0.00688807 0
0.263617 -0.00702147 0
0 0 0
0 0 0
0 0 0
0.719614 -0.074505 0
0.695964 -0.074718 0
0.672494 -0.0743042 0
0.609654 -0.0479753 0
0.587682 -0.0482203 0
0.565775 -0.0480229 0
0.463646 -0.0239923 0
0.44541 -0.0242291 0