# vtk DataFile Version 3.0
#This file was generated by the deal.II library on 2025/1/3 at 16:48:19
ASCII
DATASET UNSTRUCTURED_GRID

POINTS 34560 double
1.1 1.1 0
1.03125 1.09531 0
0.9625 1.09063 0
1.09375 1.03125 0
1.02539 1.02686 0
0.957031 1.02246 0
1.0875 0.9625 0
1.01953 0.958398 0
0.951563 0.954297 0
0.9625 1.09063 0
0.89375 1.08594 0
0.825 1.08125 0
0.957031 1.02246 0
0.888672 1.01807 0
0.820312 1.01367 0
0.951563 0.954297 0
0.883594 0.950195 0
0.815625 0.946094 0
1.0875 0.9625 0
1.01953 0.958398 0
0.951563 0.954297 0
1.08125 0.89375 0
1.01367 0.889941 0
0.946094 0.886133 0
1.075 0.825 0
1.00781 0.821484 0
0.940625 0.817969 0
0.951563 0.954297 0
0.883594 0.950195 0
0.815625 0.946094 0
0.946094 0.886133 0
0.878516 0.882324 0
0.810938 0.878516 0
0.940625 0.817969 0
0.873438 0.814453 0
0.80625 0.810937 0
0.825 1.08125 0
0.75625 1.07656 0
0.6875 1.07187 0
0.820312 1.01367 0
0.751953 1.00928 0
0.683594 1.00488 0
0.815625 0.946094 0
0.747656 0.941992 0
0.679688 0.937891 0
0.6875 1.07187 0
0.61875 1.06719 0
0.55 1.0625 0
0.683594 1.00488 0
0.615234 1.00049 0
0.546875 0.996094 0
0.679688 0.937891 0
0.611719 0.933789 0
0.54375 0.929688 0
0.815625 0.946094 0
0.747656 0.941992 0
0.679688 0.937891 0
0.810938 0.878516 0
0.743359 0.874707 0
0.675781 0.870898 0
0.80625 0.810937 0
0.739063 0.807422 0
0.671875 0.803906 0
0.679688 0.937891 0
0.611719 0.933789 0
0.54375 0.929688 0
0.675781 0.870898 0
0.608203 0.86709 0
0.540625 0.863281 0
0.671875 0.803906 0
0.604688 0.800391 0
0.5375 0.796875 0
1.075 0.825 0
1.00781 0.821484 0
0.940625 0.817969 0
1.06875 0.75625 0
1.00195 0.753027 0
0.935156 0.749805 0
1.0625 0.6875 0
0.996094 0.68457 0
0.929688 0.681641 0
0.940625 0.817969 0
0.873438 0.814453 0
0.80625 0.810937 0
0.935156 0.749805 0
0.868359 0.746582 0
0.801563 0.743359 0
0.929688 0.681641 0
0.863281 0.678711 0
0.796875 0.675781 0
1.0625 0.6875 0
0.996094 0.68457 0
0.929688 0.681641 0
1.05625 0.61875 0
0.990234 0.616113 0
0.924219 0.613477 0
1.05 0.55 0
0.984375 0.547656 0
0.91875 0.545313 0
0.929688 0.681641 0
0.863281 0.678711 0
0.796875 0.675781 0
0.924219 0.613477 0
0.858203 0.61084 0
0.792188 0.608203 0
0.91875 0.545313 0
0.853125 0.542969 0
0.7875 0.540625 0
0.80625 0.810937 0
0.739063 0.807422 0
0.671875 0.803906 0
0.801563 0.743359 0
0.734766 0.740137 0
0.667969 0.736914 0
0.796875 0.675781 0
0.730469 0.672852 0
0.664062 0.669922 0
0.671875 0.803906 0
0.604688 0.800391 0
0.5375 0.796875 0
0.667969 0.736914 0
0.601172 0.733691 0
0.534375 0.730469 0
0.664062 0.669922 0
0.597656 0.666992 0
0.53125 0.664062 0
0.796875 0.675781 0
0.730469 0.672852 0
0.664062 0.669922 0
0.792188 0.608203 0
0.726172 0.605566 0
0.660156 0.60293 0
0.7875 0.540625 0
0.721875 0.538281 0
0.65625 0.535937 0
0.664062 0.669922 0
0.597656 0.666992 0
0.53125 0.664062 0
0.660156 0.60293 0
0.594141 0.600293 0
0.528125 0.597656 0
0.65625 0.535937 0
0.590625 0.533594 0
0.525 0.53125 0
0.55 1.0625 0
0.48125 1.05781 0
0.4125 1.05313 0
0.546875 0.996094 0
0.478516 0.991699 0
0.410156 0.987305 0
0.54375 0.929688 0
0.475781 0.925586 0
0.407813 0.921484 0
0.4125 1.05313 0
0.34375 1.04844 0
0.275 1.04375 0
0.410156 0.987305 0
0.341797 0.98291 0
0.273438 0.978516 0
0.407813 0.921484 0
0.339844 0.917383 0
0.271875 0.913281 0
0.54375 0.929688 0
0.475781 0.925586 0
0.407813 0.921484 0
0.540625 0.863281 0
0.473047 0.859473 0
0.405469 0.855664 0
0.5375 0.796875 0
0.470313 0.793359 0
0.403125 0.789844 0
0.407813 0.921484 0
0.339844 0.917383 0
0.271875 0.913281 0
0.405469 0.855664 0
0.337891 0.851855 0
0.270313 0.848047 0
0.403125 0.789844 0
0.335938 0.786328 0
0.26875 0.782813 0
0.275 1.04375 0
0.20625 1.03906 0
0.1375 1.03437 0
0.273438 0.978516 0
0.205078 0.974121 0
0.136719 0.969727 0
0.271875 0.913281 0
0.203906 0.90918 0
0.135938 0.905078 0
0.1375 1.03437 0
0.06875 1.02969 0
0 1.025 0
0.136719 0.969727 0
0.0683594 0.965332 0
0 0.960937 0
0.135938 0.905078 0
0.0679688 0.900977 0
0 0.896875 0
0.271875 0.913281 0
0.203906 0.90918 0
0.135938 0.905078 0
0.270313 0.848047 0
0.202734 0.844238 0
0.135156 0.84043 0
0.26875 0.782813 0
0.201563 0.779297 0
0.134375 0.775781 0
0.135938 0.905078 0
0.0679688 0.900977 0
0 0.896875 0
0.135156 0.84043 0
0.0675781 0.836621 0
0 0.832812 0
0.134375 0.775781 0
0.0671875 0.772266 0
0 0.76875 0
0.5375 0.796875 0
0.470313 0.793359 0
0.403125 0.789844 0
0.534375 0.730469 0
0.467578 0.727246 0
0.400781 0.724023 0
0.53125 0.664062 0
0.464844 0.661133 0
0.398438 0.658203 0
0.403125 0.789844 0
0.335938 0.786328 0
0.26875 0.782813 0
0.400781 0.724023 0
0.333984 0.720801 0
0.267188 0.717578 0
0.398438 0.658203 0
0.332031 0.655273 0
0.265625 0.652344 0
0.53125 0.664062 0
0.464844 0.661133 0
0.398438 0.658203 0
0.528125 0.597656 0
0.462109 0.59502 0
0.396094 0.592383 0
0.525 0.53125 0
0.459375 0.528906 0
0.39375 0.526563 0
0.398438 0.658203 0
0.332031 0.655273 0
0.265625 0.652344 0
0.396094 0.592383 0
0.330078 0.589746 0
0.264062 0.587109 0
0.39375 0.526563 0
0.328125 0.524219 0
0.2625 0.521875 0
0.26875 0.782813 0
0.201563 0.779297 0
0.134375 0.775781 0
0.267188 0.717578 0
0.200391 0.714355 0
0.133594 0.711133 0
0.265625 0.652344 0
0.199219 0.649414 0
0.132812 0.646484 0
0.134375 0.775781 0
0.0671875 0.772266 0
0 0.76875 0
0.133594 0.711133 0
0.0667969 0.70791 0
0 0.704687 0
0.132812 0.646484 0
0.0664062 0.643555 0
0 0.640625 0
0.265625 0.652344 0
0.199219 0.649414 0
0.132812 0.646484 0
0.264062 0.587109 0
0.198047 0.584473 0
0.132031 0.581836 0
0.2625 0.521875 0
0.196875 0.519531 0
0.13125 0.517187 0
0.132812 0.646484 0
0.0664062 0.643555 0
0 0.640625 0
0.132031 0.581836 0
0.0660156 0.579199 0
0 0.576562 0
0.13125 0.517187 0
0.065625 0.514844 0
0 0.5125 0
1.05 0.55 0
0.984375 0.547656 0
0.91875 0.545313 0
1.04375 0.48125 0
0.978516 0.479199 0
0.913281 0.477148 0
1.0375 0.4125 0
0.972656 0.410742 0
0.907813 0.408984 0
0.91875 0.545313 0
0.853125 0.542969 0
0.7875 0.540625 0
0.913281 0.477148 0
0.848047 0.475098 0
0.782813 0.473047 0
0.907813 0.408984 0
0.842969 0.407227 0
0.778125 0.405469 0
1.0375 0.4125 0
0.972656 0.410742 0
0.907813 0.408984 0
1.03125 0.34375 0
0.966797 0.342285 0
0.902344 0.34082 0
1.025 0.275 0
0.960937 0.273828 0
0.896875 0.272656 0
0.907813 0.408984 0
0.842969 0.407227 0
0.778125 0.405469 0
0.902344 0.34082 0
0.837891 0.339355 0
0.773438 0.337891 0
0.896875 0.272656 0
0.832812 0.271484 0
0.76875 0.270313 0
0.7875 0.540625 0
0.721875 0.538281 0
0.65625 0.535937 0
0.782813 0.473047 0
0.717578 0.470996 0
0.652344 0.468945 0
0.778125 0.405469 0
0.713281 0.403711 0
0.648438 0.401953 0
0.65625 0.535937 0
0.590625 0.533594 0
0.525 0.53125 0
0.652344 0.468945 0
0.587109 0.466895 0
0.521875 0.464844 0
0.648438 0.401953 0
0.583594 0.400195 0
0.51875 0.398438 0
0.778125 0.405469 0
0.713281 0.403711 0
0.648438 0.401953 0
0.773438 0.337891 0
0.708984 0.336426 0
0.644531 0.334961 0
0.76875 0.270313 0
0.704687 0.269141 0
0.640625 0.267969 0
0.648438 0.401953 0
0.583594 0.400195 0
0.51875 0.398438 0
0.644531 0.334961 0
0.580078 0.333496 0
0.515625 0.332031 0
0.640625 0.267969 0
0.576562 0.266797 0
0.5125 0.265625 0
1.025 0.275 0
0.960937 0.273828 0
0.896875 0.272656 0
1.01875 0.20625 0
0.955078 0.205371 0
0.891406 0.204492 0
1.0125 0.1375 0
0.949219 0.136914 0
0.885937 0.136328 0
0.896875 0.272656 0
0.832812 0.271484 0
0.76875 0.270313 0
0.891406 0.204492 0
0.827734 0.203613 0
0.764062 0.202734 0
0.885937 0.136328 0
0.822656 0.135742 0
0.759375 0.135156 0
1.0125 0.1375 0
0.949219 0.136914 0
0.885937 0.136328 0
1.00625 0.06875 0
0.943359 0.068457 0
0.880469 0.0681641 0
1 0 0
0.9375 0 0
0.875 0 0
0.885937 0.136328 0
0.822656 0.135742 0
0.759375 0.135156 0
0.880469 0.0681641 0
0.817578 0.0678711 0
0.754687 0.0675781 0
0.875 0 0
0.8125 0 0
0.75 0 0
0.76875 0.270313 0
0.704687 0.269141 0
0.640625 0.267969 0
0.764062 0.202734 0
0.700391 0.201855 0
0.636719 0.200977 0
0.759375 0.135156 0
0.696094 0.13457 0
0.632812 0.133984 0
0.640625 0.267969 0
0.576562 0.266797 0
0.5125 0.265625 0
0.636719 0.200977 0
0.573047 0.200098 0
0.509375 0.199219 0
0.632812 0.133984 0
0.569531 0.133398 0
0.50625 0.132812 0
0.759375 0.135156 0
0.696094 0.13457 0
0.632812 0.133984 0
0.754687 0.0675781 0
0.691797 0.0672852 0
0.628906 0.0669922 0
0.75 0 0
0.6875 0 0
0.625 0 0
0.632812 0.133984 0
0.569531 0.133398 0
0.50625 0.132812 0
0.628906 0.0669922 0
0.566016 0.0666992 0
0.503125 0.0664062 0
0.625 0 0
0.5625 0 0
0.5 0 0
0.525 0.53125 0
0.459375 0.528906 0
0.39375 0.526563 0
0.521875 0.464844 0
0.456641 0.462793 0
0.391406 0.460742 0
0.51875 0.398438 0
0.453906 0.39668 0
0.389063 0.394922 0
0.39375 0.526563 0
0.328125 0.524219 0
0.2625 0.521875 0
0.391406 0.460742 0
0.326172 0.458691 0
0.260938 0.456641 0
0.389063 0.394922 0
0.324219 0.393164 0
0.259375 0.391406 0
0.51875 0.398438 0
0.453906 0.39668 0
0.389063 0.394922 0
0.515625 0.332031 0
0.451172 0.330566 0
0.386719 0.329102 0
0.5125 0.265625 0
0.448437 0.264453 0
0.384375 0.263281 0
0.389063 0.394922 0
0.324219 0.393164 0
0.259375 0.391406 0
0.386719 0.329102 0
0.322266 0.327637 0
0.257812 0.326172 0
0.384375 0.263281 0
0.320312 0.262109 0
0.25625 0.260937 0
0.2625 0.521875 0
0.196875 0.519531 0
0.13125 0.517187 0
0.260938 0.456641 0
0.195703 0.45459 0
0.130469 0.452539 0
0.259375 0.391406 0
0.194531 0.389648 0
0.129688 0.387891 0
0.13125 0.517187 0
0.065625 0.514844 0
0 0.5125 0
0.130469 0.452539 0
0.0652344 0.450488 0
0 0.448437 0
0.129688 0.387891 0
0.0648438 0.386133 0
0 0.384375 0
0.259375 0.391406 0
0.194531 0.389648 0
0.129688 0.387891 0
0.257812 0.326172 0
0.193359 0.324707 0
0.128906 0.323242 0
0.25625 0.260937 0
0.192187 0.259766 0
0.128125 0.258594 0
0.129688 0.387891 0
0.0648438 0.386133 0
0 0.384375 0
0.128906 0.323242 0
0.0644531 0.321777 0
0 0.320312 0
0.128125 0.258594 0
0.0640625 0.257422 0
0 0.25625 0
0.5125 0.265625 0
0.448437 0.264453 0
0.384375 0.263281 0
0.509375 0.199219 0
0.445703 0.19834 0
0.382031 0.197461 0
0.50625 0.132812 0
0.442969 0.132227 0
0.379688 0.131641 0
0.384375 0.263281 0
0.320312 0.262109 0
0.25625 0.260937 0
0.382031 0.197461 0
0.318359 0.196582 0
0.254687 0.195703 0
[...]
POINT_DATA 34560
VECTORS v double
1.19946 -0.243605 0
1.18942 -0.214396 0
1.18118 -0.188331 0
1.16842 -0.230973 0
1.15619 -0.204856 0
1.14624 -0.180689 0
1.13257 -0.217379 0
1.11886 -0.193551 0
1.10708 -0.17132 0
1.18118 -0.188331 0
1.17416 -0.164132 0
1.16858 -0.142449 0
1.14624 -0.180689 0
1.13718 -0.158327 0
1.13001 -0.137965 0
1.10708 -0.17132 0
1.0965 -0.150681 0
1.08762 -0.131688 0
1.13257 -0.217379 0
1.11886 -0.193551 0
1.10708 -0.17132 0
1.09065 -0.201302 0
1.07552 -0.179971 0
1.06238 -0.159938 0
1.04264 -0.185305 0
1.02666 -0.166235 0
1.01254 -0.148178 0
1.10708 -0.17132 0
1.0965 -0.150681 0
1.08762 -0.131688 0
1.06238 -0.159938 0
1.05048 -0.141195 0
1.04031 -0.123843 0
1.01254 -0.148178 0
0.999736 -0.131185 0
0.988596 -0.115345 0
1.16858 -0.142449 0
1.16341 -0.122692 0
1.15929 -0.105017 0
1.13001 -0.137965 0
1.1231 -0.11932 0
1.11761 -0.102498 0
1.08762 -0.131688 0
1.07932 -0.114252 0
1.0724 -0.0983825 0
1.15929 -0.105017 0
1.15518 -0.0890854 0
1.15176 -0.0748705 0
1.11761 -0.102498 0
1.1121 -0.0872306 0
1.10757 -0.0735313 0
1.0724 -0.0983825 0
1.06571 -0.0839382 0
1.06006 -0.0708891 0
1.08762 -0.131688 0
1.07932 -0.114252 0
1.0724 -0.0983825 0
1.04031 -0.123843 0
1.03087 -0.107791 0
1.02282 -0.093099 0
0.988596 -0.115345 0
0.978296 -0.100623 0
0.969371 -0.0870713 0
1.0724 -0.0983825 0
1.06571 -0.0839382 0
1.06006 -0.0708891 0
1.02282 -0.093099 0
1.0152 -0.0796449 0
1.00865 -0.0674252 0
0.969371 -0.0870713 0
0.961019 -0.0746128 0
0.953748 -0.0632465 0
1.04264 -0.185305 0
1.02666 -0.166235 0
1.01254 -0.148178 0
0.989257 -0.168456 0
0.972663 -0.15155 0
0.957852 -0.135444 0
0.931043 -0.151673 0
0.914052 -0.136745 0
0.898734 -0.122444 0
1.01254 -0.148178 0
0.999736 -0.131185 0
0.988596 -0.115345 0
0.957852 -0.135444 0
0.944359 -0.120194 0
0.932471 -0.105907 0
0.898734 -0.122444 0
0.88474 -0.108848 0
0.872284 -0.0960504 0
0.931043 -0.151673 0
0.914052 -0.136745 0
0.898734 -0.122444 0
0.867854 -0.134029 0
0.850595 -0.121051 0
0.83496 -0.10857 0
0.799967 -0.11677 0
0.782632 -0.105598 0
0.766843 -0.094809 0
0.898734 -0.122444 0
0.88474 -0.108848 0
0.872284 -0.0960504 0
0.83496 -0.10857 0
0.820631 -0.0966547 0
0.807801 -0.0853961 0
0.766843 -0.094809 0
0.752348 -0.0844742 0
0.739301 -0.0746764 0
0.988596 -0.115345 0
0.978296 -0.100623 0
0.969371 -0.0870713 0
0.932471 -0.105907 0
0.921509 -0.0925698 0
0.911898 -0.0802369 0
0.872284 -0.0960504 0
0.860827 -0.0840614 0
0.850691 -0.0729321 0
0.969371 -0.0870713 0
0.961019 -0.0746128 0
0.953748 -0.0632465 0
0.911898 -0.0802369 0
0.90298 -0.0688577 0
0.895148 -0.0584386 0
0.850691 -0.0729321 0
0.841348 -0.0626372 0
0.833092 -0.0531839 0
0.872284 -0.0960504 0
0.860827 -0.0840614 0
0.850691 -0.0729321 0
0.807801 -0.0853961 0
0.796011 -0.0748112 0
0.785524 -0.064954 0
0.739301 -0.0746764 0
0.72733 -0.0654441 0
0.716636 -0.056825 0
0.850691 -0.0729321 0
0.841348 -0.0626372 0
0.833092 -0.0531839 0
0.785524 -0.064954 0
0.775904 -0.0558118 0
0.767373 -0.047399 0
0.716636 -0.056825 0
0.706869 -0.0488213 0
0.69819 -0.041446 0
1.15176 -0.0748705 0
1.14818 -0.0621177 0
1.145 -0.0507274 0
1.10757 -0.0735313 0
1.10293 -0.061166 0
1.09892 -0.0500693 0
1.06006 -0.0708891 0
1.0545 -0.0590718 0
1.04967 -0.0484167 0
1.145 -0.0507274 0
1.14162 -0.0404624 0
1.13844 -0.0311986 0
1.09892 -0.0500693 0
1.0948 -0.0400247 0
1.09106 -0.0309217 0
1.04967 -0.0484167 0
1.0449 -0.0387429 0
1.04062 -0.0299454 0
1.06006 -0.0708891 0
1.0545 -0.0590718 0
1.04967 -0.0484167 0
1.00865 -0.0674252 0
1.00238 -0.0563057 0
0.996893 -0.0462383 0
0.953748 -0.0632465 0
0.946901 -0.0528744 0
0.940879 -0.0434523 0
1.04967 -0.0484167 0
1.0449 -0.0387429 0
1.04062 -0.0299454 0
0.996893 -0.0462383 0
0.991628 -0.0370671 0
0.986932 -0.0286979 0
0.940879 -0.0434523 0
0.935216 -0.0348525 0
0.930182 -0.0269901 0
1.13844 -0.0311986 0
1.13509 -0.0226846 0
1.13181 -0.0147878 0
1.09106 -0.0309217 0
1.08725 -0.0225365 0
1.08369 -0.0147316 0
1.04062 -0.0299454 0
1.03643 -0.0218208 0
1.0326 -0.0142482 0
1.13181 -0.0147878 0
1.12841 -0.0072524 0
1.125 0 0
1.08369 -0.0147316 0
1.0801 -0.00726843 0
1.07666 0 0
1.0326 -0.0142482 0
1.02886 -0.0070044 0
1.02539 0 0
1.04062 -0.0299454 0
1.03643 -0.0218208 0
1.0326 -0.0142482 0
0.986932 -0.0286979 0
0.982466 -0.0209484 0
0.978436 -0.0137118 0
0.930182 -0.0269901 0
0.925496 -0.0197038 0
0.921316 -0.0128922 0
1.0326 -0.0142482 0
1.02886 -0.0070044 0
1.02539 0 0
0.978436 -0.0137118 0
0.974639 -0.00677189 0
0.971191 0 0
0.921316 -0.0128922 0
0.917476 -0.00635455 0
0.914062 0 0
0.953748 -0.0632465 0
0.946901 -0.0528744 0
0.940879 -0.0434523 0
0.895148 -0.0584386 0
0.887865 -0.0489049 0
0.881436 -0.0402225 0
0.833092 -0.0531839 0
0.825487 -0.0445209 0
0.818759 -0.0366185 0
0.940879 -0.0434523 0
0.935216 -0.0348525 0
0.930182 -0.0269901 0
0.881436 -0.0402225 0
0.875487 -0.0322856 0
0.870212 -0.0250214 0
0.818759 -0.0366185 0
0.812611 -0.0293933 0
0.807176 -0.0227799 0
0.833092 -0.0531839 0
0.825487 -0.0445209 0
0.818759 -0.0366185 0
0.767373 -0.047399 0
0.759576 -0.0396781 0
0.752675 -0.0326284 0
0.69819 -0.041446 0
0.690312 -0.0346767 0
0.683341 -0.0284957 0
0.818759 -0.0366185 0
0.812611 -0.0293933 0
0.807176 -0.0227799 0
0.752675 -0.0326284 0
0.746433 -0.0261821 0
0.740933 -0.0202867 0
0.683341 -0.0284957 0
0.677094 -0.0228525 0
0.671611 -0.0177015 0
0.930182 -0.0269901 0
0.925496 -0.0197038 0
0.921316 -0.0128922 0
0.870212 -0.0250214 0
0.865392 -0.0182834 0
0.861135 -0.0119794 0
0.807176 -0.0227799 0
0.802281 -0.0166494 0
0.797997 -0.0109148 0
0.921316 -0.0128922 0
0.917476 -0.00635455 0
0.914062 0 0
0.861135 -0.0119794 0
0.857322 -0.00591884 0
0.854004 0 0
0.797997 -0.0109148 0
0.794233 -0.0053967 0
0.791016 0 0
0.807176 -0.0227799 0
0.802281 -0.0166494 0
0.797997 -0.0109148 0
0.740933 -0.0202867 0
0.736044 -0.0148264 0
0.731805 -0.00972345 0
0.671611 -0.0177015 0
0.666791 -0.0129432 0
0.662648 -0.00850441 0
0.797997 -0.0109148 0
0.794233 -0.0053967 0
0.791016 0 0
0.731805 -0.00972345 0
0.728153 -0.00480843 0
0.725098 0 0
0.662648 -0.00850441 0
0.659137 -0.00422559 0
0.65625 0 0
0.799967 -0.11677 0
0.782632 -0.105598 0
0.766843 -0.094809 0
0.727611 -0.0989742 0
0.71026 -0.0895525 0
0.694417 -0.0804323 0
0.65076 -0.0815642 0
0.63351 -0.0738089 0
0.617721 -0.0662867 0
0.766843 -0.094809 0
0.752348 -0.0844742 0
0.739301 -0.0746764 0
0.694417 -0.0804323 0
0.67985 -0.0716763 0
0.666704 -0.06336 0
0.617721 -0.0662867 0
0.603205 -0.0590541 0
0.590085 -0.0521767 0
0.65076 -0.0815642 0
0.63351 -0.0738089 0
0.617721 -0.0662867 0
0.569094 -0.0636983 0
0.552034 -0.0575835 0
0.536428 -0.0516559 0
0.481035 -0.0464453 0
0.464534 -0.0419252 0
0.449455 -0.0375519 0
0.617721 -0.0662867 0
0.603205 -0.0590541 0
0.590085 -0.0521767 0
0.536428 -0.0516559 0
0.52209 -0.045958 0
0.509143 -0.0405445 0
0.449455 -0.0375519 0
0.435639 -0.0333535 0
0.423191 -0.0293747 0
0.739301 -0.0746764 0
0.72733 -0.0654441 0
0.716636 -0.056825 0
0.666704 -0.06336 0
0.654663 -0.0555123 0
0.643889 -0.0481762 0
0.590085 -0.0521767 0
0.5781 -0.0456829 0
0.567374 -0.0396098 0
0.716636 -0.056825 0
0.706869 -0.0488213 0
0.69819 -0.041446 0
0.643889 -0.0481762 0
0.634093 -0.0413587 0
0.625389 -0.0350746 0
0.567374 -0.0396098 0
0.557672 -0.0339684 0
0.549067 -0.0287711 0
0.590085 -0.0521767 0
0.5781 -0.0456829 0
0.567374 -0.0396098 0
0.509143 -0.0405445 0
0.497358 -0.0354382 0
0.486835 -0.030669 0
0.423191 -0.0293747 0
0.411915 -0.0256299 0
0.401883 -0.0221423 0
0.567374 -0.0396098 0
0.557672 -0.0339684 0
0.549067 -0.0287711 0
0.486835 -0.030669 0
0.477374 -0.026246 0
0.469018 -0.0221792 0
0.401883 -0.0221423 0
0.392925 -0.0189171 0
0.385057 -0.0159616 0
0.481035 -0.0464453 0
0.464534 -0.0419252 0
0.449455 -0.0375519 0
0.38376 -0.0295745 0
0.368532 -0.0265962 0
0.354692 -0.023732 0
0.272839 -0.0149257 0
0.260398 -0.0133872 0
0.249172 -0.0119197 0
0.449455 -0.0375519 0
0.435639 -0.0333535 0
0.423191 -0.0293747 0
0.354692 -0.023732 0
0.342064 -0.0209968 0
0.330751 -0.018421 0
0.249172 -0.0119197 0
0.238997 -0.0105184 0
0.22995 -0.00920918 0
0.272839 -0.0149257 0
0.260398 -0.0133872 0
0.249172 -0.0119197 0
0.144549 -0.00414317 0
0.13715 -0.00368535 0
0.130571 -0.00326034 0
0 0 0
0 0 0
0 0 0
0.249172 -0.0119197 0
0.238997 -0.0105184 0
0.22995 -0.00920918 0
0.130571 -0.00326034 0
0.124629 -0.00285104 0
0.119415 -0.00247863 0
0 0 0
0 0 0
0 0 0
0.423191 -0.0293747 0
0.411915 -0.0256299 0
0.401883 -0.0221423 0
0.330751 -0.018421 0
0.320564 -0.0160109 0
0.311557 -0.0137808 0
0.22995 -0.00920918 0
0.221862 -0.00798866 0
0.214765 -0.00686829 0
0.401883 -0.0221423 0
0.392925 -0.0189171 0
0.385057 -0.0159616 0
0.311557 -0.0137808 0
0.303573 -0.0117312 0
0.296611 -0.00986527 0
0.214765 -0.00686829 0
0.20852 -0.0058431 0
0.203112 -0.00491739 0
0.22995 -0.00920918 0
0.221862 -0.00798866 0
0.214765 -0.00686829 0
0.119415 -0.00247863 0
0.114776 -0.002132 0
0.110747 -0.00182197 0
0 0 0
0 0 0
0 0 0
0.214765 -0.00686829 0
0.20852 -0.0058431 0
0.203112 -0.00491739 0
0.110747 -0.00182197 0
0.107217 -0.00153868 0
0.104179 -0.00128921 0
0 0 0
0 0 0
0 0 0
0.69819 -0.041446 0
0.690312 -0.0346767 0
0.683341 -0.0284957 0
0.625389 -0.0350746 0
0.617543 -0.0293081 0
0.610618 -0.0240475 0
0.549067 -0.0287711 0
0.541367 -0.0240088 0
0.534599 -0.0196717 0
0.683341 -0.0284957 0
0.677094 -0.0228525 0
0.671611 -0.0177015 0
0.610618 -0.0240475 0
0.604466 -0.0192525 0
0.599094 -0.0148887 0
0.534599 -0.0196717 0
0.528639 -0.0157308 0
0.523468 -0.0121581 0
0.549067 -0.0287711 0
0.541367 -0.0240088 0
0.534599 -0.0196717 0
0.469018 -0.0221792 0
0.461602 -0.0184605 0
0.455126 -0.0150826 0
0.385057 -0.0159616 0
0.378136 -0.0132676 0
0.372141 -0.0108278 0
0.534599 -0.0196717 0
0.528639 -0.0157308 0
0.523468 -0.0121581 0
0.455126 -0.0150826 0
0.449481 -0.0120219 0
0.444626 -0.00925901 0
0.372141 -0.0108278 0
0.36697 -0.00862367 0
0.362571 -0.00664226 0
0.671611 -0.0177015 0
0.666791 -0.0129432 0
0.662648 -0.00850441 0
0.599094 -0.0148887 0
0.594422 -0.0108705 0
0.590445 -0.00713527 0
0.523468 -0.0121581 0
0.519016 -0.00888471 0
0.515265 -0.00585514 0
0.662648 -0.00850441 0
0.659137 -0.00422559 0
0.65625 0 0
0.590445 -0.00713527 0
0.587133 -0.00353419 0
0.584473 0 0
0.515265 -0.00585514 0
0.512187 -0.00293522 0
0.509766 0 0
0.523468 -0.0121581 0
0.519016 -0.00888471 0
0.515265 -0.00585514 0
0.444626 -0.00925901 0
0.440489 -0.00673916 0
0.437041 -0.00442451 0
0.362571 -0.00664226 0
0.358864 -0.00484478 0
0.355807 -0.00320084 0
0.515265 -0.00585514 0
0.512187 -0.00293522 0
0.509766 0 0
0.437041 -0.00442451 0
0.434258 -0.00219807 0
0.432129 0 0
0.355807 -0.00320084 0
0.353378 -0.0016287 0
0.351562 0 0
0.385057 -0.0159616 0
0.378136 -0.0132676 0
0.372141 -0.0108278 0
0.296611 -0.00986527 0
0.290542 -0.00817391 0
0.28533 -0.00664952 0
0.203112 -0.00491739 0
0.198436 -0.00408217 0
0.194448 -0.00333318 0
0.372141 -0.0108278 0
0.36697 -0.00862367 0
0.362571 -0.00664226 0
0.28533 -0.00664952 0
0.280885 -0.0052754 0
0.277145 -0.00404468 0
0.194448 -0.00333318 0
0.191075 -0.00265815 0
0.188262 -0.00205591 0
0.203112 -0.00491739 0
0.198436 -0.00408217 0
0.194448 -0.00333318 0
0.104179 -0.00128921 0
0.101563 -0.00106487 0
0.0993342 -0.000867204 0
0 0 0
0 0 0
0 0 0
0.194448 -0.00333318 0
0.191075 -0.00265815 0
0.188262 -0.00205591 0
0.0993342 -0.000867204 0
0.0974545 -0.000686439 0
0.0958813 -0.000528446 0
0 0 0
0 0 0
0 0 0
0.362571 -0.00664226 0
0.358864 -0.00484478 0
0.355807 -0.00320084 0
0.277145 -0.00404468 0
0.274033 -0.00292724 0
0.271504 -0.00190955 0
0.188262 -0.00205591 0
0.185952 -0.00150853 0
0.184103 -0.00100207 0
0.355807 -0.00320084 0
0.353378 -0.0016287 0
0.351562 0 0
0.271504 -0.00190955 0
0.269516 -0.000934332 0
0.268066 0 0
0.184103 -0.00100207 0
0.182667 -0.000521155 0
0.181641 0 0
0.188262 -0.00205591 0
0.185952 -0.00150853 0
0.184103 -0.00100207 0
0.0958813 -0.000528446 0
0.0945962 -0.000384428 0
0.0935874 -0.000247756 0
0 0 0
0 0 0
0 0 0
0.184103 -0.00100207 0
0.182667 -0.000521155 0
0.181641 0 0
0.0935874 -0.000247756 0
0.0928049 -9.7305e-05 0
0.0922852 0 0
0 0 0
0 0 0
0 0 0
1.6309 -0.47884 0
1.59106 -0.489821 0
1.54989 -0.495936 0
1.57784 -0.42994 0
1.54083 -0.440233 0
1.50278 -0.446252 0
1.51925 -0.385412 0
1.48572 -0.395185 0
1.45119 -0.401279 0
1.54989 -0.495936 0
1.50918 -0.496707 0
1.4681 -0.492539 0
1.50278 -0.446252 0
1.46516 -0.447976 0
1.4273 -0.445387 0
1.45119 -0.401279 0
1.41713 -0.403769 0
1.38283 -0.402478 0
1.51925 -0.385412 0
1.48572 -0.395185 0
1.45119 -0.401279 0
1.46177 -0.34642 0
1.43093 -0.354646 0
1.39926 -0.359815 0
1.40056 -0.308183 0
1.3712 -0.315621 0
1.34116 -0.320432 0
1.45119 -0.401279 0
1.41713 -0.403769 0
1.38283 -0.402478 0
1.39926 -0.359815 0
1.36782 -0.36194 0
1.33614 -0.360925 0
1.34116 -0.320432 0
1.3114 -0.322669 0
1.28149 -0.322224 0
1.4681 -0.492539 0
1.43007 -0.483701 0
1.39285 -0.470327 0
1.4273 -0.445387 0
1.39202 -0.438731 0
1.35747 -0.428457 0
1.38283 -0.402478 0
1.3506 -0.397759 0
1.319 -0.389714 0
1.39285 -0.470327 0
1.35983 -0.453836 0
1.32849 -0.434125 0
1.35747 -0.428457 0
1.32646 -0.415097 0
1.29699 -0.39896 0
1.319 -0.389714 0
1.29019 -0.378839 0
1.26269 -0.365347 0
1.38283 -0.402478 0
1.3506 -0.397759 0
1.319 -0.389714 0
1.33614 -0.360925 0
1.30598 -0.357009 0
1.27626 -0.350278 0
1.28149 -0.322224 0
1.25287 -0.319302 0
1.22474 -0.313965 0
1.319 -0.389714 0
1.29019 -0.378839 0
1.26269 -0.365347 0
1.27626 -0.350278 0
1.24877 -0.341168 0
1.22237 -0.329816 0
1.22474 -0.313965 0
1.1985 -0.306538 0
1.17332 -0.297126 0
1.40056 -0.308183 0
1.3712 -0.315621 0
1.34116 -0.320432 0
1.33525 -0.273226 0
1.3074 -0.280118 0
1.27897 -0.28468 0
1.26869 -0.239605 0
1.24211 -0.246003 0
1.21498 -0.250369 0
1.34116 -0.320432 0
1.3114 -0.322669 0
1.28149 -0.322224 0
1.27897 -0.28468 0
1.25085 -0.286962 0
1.22263 -0.2869 0
1.21498 -0.250369 0
1.18811 -0.252747 0
1.16116 -0.253076 0
1.26869 -0.239605 0
1.24211 -0.246003 0
1.21498 -0.250369 0
1.20039 -0.207628 0
1.17471 -0.213385 0
1.14851 -0.217379 0
1.12926 -0.176725 0
1.1042 -0.181989 0
1.07864 -0.185739 0
1.21498 -0.250369 0
1.18811 -0.252747 0
1.16116 -0.253076 0
1.14851 -0.217379 0
1.12252 -0.219664 0
1.09645 -0.220183 0
1.07864 -0.185739 0
1.05329 -0.188026 0
1.02787 -0.188796 0
1.28149 -0.322224 0
1.25287 -0.319302 0
1.22474 -0.313965 0
1.22263 -0.2869 0
1.19554 -0.284665 0
1.16889 -0.2803 0
1.16116 -0.253076 0
1.13514 -0.2515 0
1.10953 -0.248049 0
1.22474 -0.313965 0
1.1985 -0.306538 0
1.17332 -0.297126 0
1.16889 -0.2803 0
1.14386 -0.274078 0
1.11976 -0.266085 0
1.10953 -0.248049 0
1.08529 -0.242956 0
1.06191 -0.236287 0
1.16116 -0.253076 0
1.13514 -0.2515 0
1.10953 -0.248049 0
1.09645 -0.220183 0
1.07119 -0.219073 0
1.0463 -0.216342 0
1.02787 -0.188796 0
1.00316 -0.188162 0
0.978823 -0.186128 0
1.10953 -0.248049 0
1.08529 -0.242956 0
1.06191 -0.236287 0
1.0463 -0.216342 0
1.0226 -0.212193 0
0.999706 -0.206663 0
0.978823 -0.186128 0
0.955533 -0.182856 0
0.933003 -0.178376 0
1.32849 -0.434125 0
1.30187 -0.412686 0
1.27768 -0.389056 0
1.29699 -0.39896 0
1.2716 -0.380714 0
1.24837 -0.36083 0
1.26269 -0.365347 0
1.23842 -0.349914 0
1.21599 -0.332795 0
1.27768 -0.389056 0
1.25747 -0.364936 0
1.2399 -0.340043 0
1.24837 -0.36083 0
1.22861 -0.339974 0
1.21127 -0.318233 0
1.21599 -0.332795 0
1.19647 -0.314541 0
1.17902 -0.295357 0
1.26269 -0.365347 0
1.23842 -0.349914 0
1.21599 -0.332795 0
1.22237 -0.329816 0
1.19867 -0.316747 0
1.17657 -0.302116 0
1.17332 -0.297126 0
1.15045 -0.286125 0
1.12909 -0.273704 0
1.21599 -0.332795 0
1.19647 -0.314541 0
1.17902 -0.295357 0
1.17657 -0.302116 0
1.15703 -0.286446 0
1.13941 -0.269906 0
1.12909 -0.273704 0
1.10997 -0.260267 0
1.09261 -0.245954 0
1.2399 -0.340043 0
1.22588 -0.315334 0
1.21469 -0.290559 0
1.21127 -0.318233 0
1.19705 -0.296174 0
1.18532 -0.274096 0
1.17902 -0.295357 0
1.16422 -0.275791 0
1.15162 -0.256048 0
1.21469 -0.290559 0
1.20592 -0.266621 0
1.19946 -0.243605 0
1.18532 -0.274096 0
1.17572 -0.252362 0
1.16842 -0.230973 0
1.15162 -0.256048 0
1.14105 -0.236497 0
1.13257 -0.217379 0
1.17902 -0.295357 0
1.16422 -0.275791 0
1.15162 -0.256048 0
1.13941 -0.269906 0
1.12423 -0.252931 0
1.11111 -0.235656 0
1.09261 -0.245954 0
1.07742 -0.231111 0
1.06409 -0.215896 0
1.15162 -0.256048 0
1.14105 -0.236497 0
1.13257 -0.217379 0
1.11111 -0.235656 0
1.0999 -0.218399 0
1.09065 -0.201302 0
1.06409 -0.215896 0
1.05247 -0.200574 0
1.04264 -0.185305 0
1.17332 -0.297126 0
1.15045 -0.286125 0
1.12909 -0.273704 0
1.11976 -0.266085 0
1.09764 -0.25667 0
1.07686 -0.245963 0
1.06191 -0.236287 0
1.04022 -0.228333 0
1.01977 -0.219206 0
1.12909 -0.273704 0
1.10997 -0.260267 0
1.09261 -0.245954 0
1.07686 -0.245963 0
1.05801 -0.234312 0
1.04073 -0.221826 0
1.01977 -0.219206 0
1.00103 -0.209196 0
0.983762 -0.19841 0
1.06191 -0.236287 0
1.04022 -0.228333 0
1.01977 -0.219206 0
0.999706 -0.206663 0
0.978306 -0.200003 0
0.958063 -0.192292 0
0.933003 -0.178376 0
0.911795 -0.172891 0
0.891677 -0.166471 0
1.01977 -0.219206 0
1.00103 -0.209196 0
0.983762 -0.19841 0
0.958063 -0.192292 0
0.939359 -0.183779 0
0.922036 -0.174548 0
0.891677 -0.166471 0
0.872944 -0.159317 0
0.855514 -0.151506 0
1.09261 -0.245954 0
1.07742 -0.231111 0
1.06409 -0.215896 0
1.04073 -0.221826 0
1.02538 -0.208829 0
1.01173 -0.195466 0
0.983762 -0.19841 0
0.968239 -0.187119 0
0.954319 -0.175452 0
1.06409 -0.215896 0
1.05247 -0.200574 0
1.04264 -0.185305 0
1.01173 -0.195466 0
0.999657 -0.181979 0
0.989257 -0.168456 0
0.954319 -0.175452 0
0.941889 -0.163603 0
0.931043 -0.151673 0
0.983762 -0.19841 0
0.968239 -0.187119 0
0.954319 -0.175452 0
0.922036 -0.174548 0
0.906296 -0.16483 0
0.892061 -0.154733 0
0.855514 -0.151506 0
0.839531 -0.143231 0
0.824981 -0.134594 0
0.954319 -0.175452 0
0.941889 -0.163603 0
0.931043 -0.151673 0
0.892061 -0.154733 0
0.879212 -0.144434 0
0.867854 -0.134029 0
0.824981 -0.134594 0
0.811751 -0.125746 0
0.799967 -0.11677 0
1.12926 -0.176725 0
1.1042 -0.181989 0
1.07864 -0.185739 0
1.05611 -0.147525 0
1.03153 -0.15224 0
1.00647 -0.155655 0
0.979948 -0.118907 0
0.955763 -0.123131 0
0.931055 -0.126259 0
1.07864 -0.185739 0
1.05329 -0.188026 0
1.02787 -0.188796 0
1.00647 -0.155655 0
0.981582 -0.157814 0
0.956617 -0.158672 0
0.931055 -0.126259 0
0.906486 -0.128332 0
0.881806 -0.129309 0
0.979948 -0.118907 0
0.955763 -0.123131 0
0.931055 -0.126259 0
0.898129 -0.0913917 0
0.874525 -0.0950276 0
0.850336 -0.0977683 0
0.803641 -0.065013 0
0.781216 -0.0680065 0
0.758059 -0.0703111 0
0.931055 -0.126259 0
0.906486 -0.128332 0
0.881806 -0.129309 0
0.850336 -0.0977683 0
0.826193 -0.0996461 0
0.801878 -0.10063 0
0.758059 -0.0703111 0
0.734829 -0.0719539 0
0.711323 -0.072904 0
1.02787 -0.188796 0
1.00316 -0.188162 0
0.978823 -0.186128 0
0.956617 -0.158672 0
0.932271 -0.158328 0
0.90826 -0.156783 0
0.881806 -0.129309 0
0.857658 -0.129276 0
0.833811 -0.12823 0
0.978823 -0.186128 0
0.955533 -0.182856 0
0.933003 -0.178376 0
0.90826 -0.156783 0
0.885174 -0.15418 0
0.8628 -0.150539 0
0.833811 -0.12823 0
0.810788 -0.126291 0
0.788436 -0.123473 0
0.881806 -0.129309 0
0.857658 -0.129276 0
0.833811 -0.12823 0
0.801878 -0.10063 0
0.777989 -0.10079 0
0.754344 -0.10012 0
0.711323 -0.072904 0
0.688114 -0.0732186 0
0.665065 -0.0728885 0
0.833811 -0.12823 0
0.810788 -0.126291 0
0.788436 -0.123473 0
0.754344 -0.10012 0
0.731414 -0.0987201 0
0.7091 -0.0965994 0
0.665065 -0.0728885 0
0.642607 -0.0719915 0
0.620695 -0.0705333 0
0.803641 -0.065013 0
0.781216 -0.0680065 0
0.758059 -0.0703111 0
0.685038 -0.0410061 0
0.664987 -0.0431836 0
0.644052 -0.0448831 0
0.523318 -0.0198155 0
0.507484 -0.0210996 0
0.490678 -0.0221202 0
0.758059 -0.0703111 0
0.734829 -0.0719539 0
0.711323 -0.072904 0
0.644052 -0.0448831 0
0.622846 -0.0461241 0
0.601223 -0.0468794 0
0.490678 -0.0221202 0
0.473447 -0.022899 0
0.455705 -0.0234062 0
0.523318 -0.0198155 0
0.507484 -0.0210996 0
0.490678 -0.0221202 0
0.298603 -0.00574593 0
0.289299 -0.00614867 0
0.279237 -0.00645721 0
0 0 0
0 0 0
0 0 0
0.490678 -0.0221202 0
0.473447 -0.022899 0
0.455705 -0.0234062 0
0.279237 -0.00645721 0
0.268807 -0.00670067 0
0.257953 -0.00684388 0
0 0 0
0 0 0
0 0 0
0.711323 -0.072904 0
0.688114 -0.0732186 0
0.665065 -0.0728885 0
0.601223 -0.0468794 0
0.579715 -0.0471924 0