# vtk DataFile Version 3.0
#This file was generated by the deal.II library on 2025/1/3 at 17:00:14
ASCII
DATASET UNSTRUCTURED_GRID

POINTS 34560 double
1.1 1.1 0
1.03125 1.09531 0
0.9625 1.09063 0
1.09375 1.03125 0
1.02539 1.02686 0
0.957031 1.02246 0
1.0875 0.9625 0
1.01953 0.958398 0
0.951563 0.954297 0
0.9625 1.09063 0
0.89375 1.08594 0
0.825 1.08125 0
0.957031 1.02246 0
0.888672 1.01807 0
0.820312 1.01367 0
0.951563 0.954297 0
0.883594 0.950195 0
0.815625 0.946094 0
1.0875 0.9625 0
1.01953 0.958398 0
0.951563 0.954297 0
1.08125 0.89375 0
1.01367 0.889941 0
0.946094 0.886133 0
1.075 0.825 0
1.00781 0.821484 0
0.940625 0.817969 0
0.951563 0.954297 0
0.883594 0.950195 0
0.815625 0.946094 0
0.946094 0.886133 0
0.878516 0.882324 0
0.810938 0.878516 0
0.940625 0.817969 0
0.873438 0.814453 0
0.80625 0.810937 0
0.825 1.08125 0
0.75625 1.07656 0
0.6875 1.07187 0
0.820312 1.01367 0
0.751953 1.00928 0
0.683594 1.00488 0
0.815625 0.946094 0
0.747656 0.941992 0
0.679688 0.937891 0
0.6875 1.07187 0
0.61875 1.06719 0
0.55 1.0625 0
0.683594 1.00488 0
0.615234 1.00049 0
0.546875 0.996094 0
0.679688 0.937891 0
0.611719 0.933789 0
0.54375 0.929688 0
0.815625 0.946094 0
0.747656 0.941992 0
0.679688 0.937891 0
0.810938 0.878516 0
0.743359 0.874707 0
0.675781 0.870898 0
0.80625 0.810937 0
0.739063 0.807422 0
0.671875 0.803906 0
0.679688 0.937891 0
0.611719 0.933789 0
0.54375 0.929688 0
0.675781 0.870898 0
0.608203 0.86709 0
0.540625 0.863281 0
0.671875 0.803906 0
0.604688 0.800391 0
0.5375 0.796875 0
1.075 0.825 0
1.00781 0.821484 0
0.940625 0.817969 0
1.06875 0.75625 0
1.00195 0.753027 0
0.935156 0.749805 0
1.0625 0.6875 0
0.996094 0.68457 0
0.929688 0.681641 0
0.940625 0.817969 0
0.873438 0.814453 0
0.80625 0.810937 0
0.935156 0.749805 0
0.868359 0.746582 0
0.801563 0.743359 0
0.929688 0.681641 0
0.863281 0.678711 0
0.796875 0.675781 0
1.0625 0.6875 0
0.996094 0.68457 0
0.929688 0.681641 0
1.05625 0.61875 0
0.990234 0.616113 0
0.924219 0.613477 0
1.05 0.55 0
0.984375 0.547656 0
0.91875 0.545313 0
0.929688 0.681641 0
0.863281 0.678711 0
0.796875 0.675781 0
0.924219 0.613477 0
0.858203 0.61084 0
0.792188 0.608203 0
0.91875 0.545313 0
0.853125 0.542969 0
0.7875 0.540625 0
0.80625 0.810937 0
0.739063 0.807422 0
0.671875 0.803906 0
0.801563 0.743359 0
0.734766 0.740137 0
0.667969 0.736914 0
0.796875 0.675781 0
0.730469 0.672852 0
0.664062 0.669922 0
0.671875 0.803906 0
0.604688 0.800391 0
0.5375 0.796875 0
0.667969 0.736914 0
0.601172 0.733691 0
0.534375 0.730469 0
0.664062 0.669922 0
0.597656 0.666992 0
0.53125 0.664062 0
0.796875 0.675781 0
0.730469 0.672852 0
0.664062 0.669922 0
0.792188 0.608203 0
0.726172 0.605566 0
0.660156 0.60293 0
0.7875 0.540625 0
0.721875 0.538281 0
0.65625 0.535937 0
0.664062 0.669922 0
0.597656 0.666992 0
0.53125 0.664062 0
0.660156 0.60293 0
0.594141 0.600293 0
0.528125 0.597656 0
0.65625 0.535937 0
0.590625 0.533594 0
0.525 0.53125 0
0.55 1.0625 0
0.48125 1.05781 0
0.4125 1.05313 0
0.546875 0.996094 0
0.478516 0.991699 0
0.410156 0.987305 0
0.54375 0.929688 0
0.475781 0.925586 0
0.407813 0.921484 0
0.4125 1.05313 0
0.34375 1.04844 0
0.275 1.04375 0
0.410156 0.987305 0
0.341797 0.98291 0
0.273438 0.978516 0
0.407813 0.921484 0
0.339844 0.917383 0
0.271875 0.913281 0
0.54375 0.929688 0
0.475781 0.925586 0
0.407813 0.921484 0
0.540625 0.863281 0
0.473047 0.859473 0
0.405469 0.855664 0
0.5375 0.796875 0
0.470313 0.793359 0
0.403125 0.789844 0
0.407813 0.921484 0
0.339844 0.917383 0
0.271875 0.913281 0
0.405469 0.855664 0
0.337891 0.851855 0
0.270313 0.848047 0
0.403125 0.789844 0
0.335938 0.786328 0
0.26875 0.782813 0
0.275 1.04375 0
0.20625 1.03906 0
0.1375 1.03437 0
0.273438 0.978516 0
0.205078 0.974121 0
0.136719 0.969727 0
0.271875 0.913281 0
0.203906 0.90918 0
0.135938 0.905078 0
0.1375 1.03437 0
0.06875 1.02969 0
0 1.025 0
0.136719 0.969727 0
0.0683594 0.965332 0
0 0.960937 0
0.135938 0.905078 0
0.0679688 0.900977 0
0 0.896875 0
0.271875 0.913281 0
0.203906 0.90918 0
0.135938 0.905078 0
0.270313 0.848047 0
0.202734 0.844238 0
0.135156 0.84043 0
0.26875 0.782813 0
0.201563 0.779297 0
0.134375 0.775781 0
0.135938 0.905078 0
0.0679688 0.900977 0
0 0.896875 0
0.135156 0.84043 0
0.0675781 0.836621 0
0 0.832812 0
0.134375 0.775781 0
0.0671875 0.772266 0
0 0.76875 0
0.5375 0.796875 0
0.470313 0.793359 0
0.403125 0.789844 0
0.534375 0.730469 0
0.467578 0.727246 0
0.400781 0.724023 0
0.53125 0.664062 0
0.464844 0.661133 0
0.398438 0.658203 0
0.403125 0.789844 0
0.335938 0.786328 0
0.26875 0.782813 0
0.400781 0.724023 0
0.333984 0.720801 0
0.267188 0.717578 0
0.398438 0.658203 0
0.332031 0.655273 0
0.265625 0.652344 0
0.53125 0.664062 0
0.464844 0.661133 0
0.398438 0.658203 0
0.528125 0.597656 0
0.462109 0.59502 0
0.396094 0.592383 0
0.525 0.53125 0
0.459375 0.528906 0
0.39375 0.526563 0
0.398438 0.658203 0
0.332031 0.655273 0
0.265625 0.652344 0
0.396094 0.592383 0
0.330078 0.589746 0
0.264062 0.587109 0
0.39375 0.526563 0
0.328125 0.524219 0
0.2625 0.521875 0
0.26875 0.782813 0
0.201563 0.779297 0
0.134375 0.775781 0
0.267188 0.717578 0
0.200391 0.714355 0
0.133594 0.711133 0
0.265625 0.652344 0
0.199219 0.649414 0
0.132812 0.646484 0
0.134375 0.775781 0
0.0671875 0.772266 0
0 0.76875 0
0.133594 0.711133 0
0.0667969 0.70791 0
0 0.704687 0
0.132812 0.646484 0
0.0664062 0.643555 0
0 0.640625 0
0.265625 0.652344 0
0.199219 0.649414 0
0.132812 0.646484 0
0.264062 0.587109 0
0.198047 0.584473 0
0.132031 0.581836 0
0.2625 0.521875 0
0.196875 0.519531 0
0.13125 0.517187 0
0.132812 0.646484 0
0.0664062 0.643555 0
0 0.640625 0
0.132031 0.581836 0
0.0660156 0.579199 0
0 0.576562 0
0.13125 0.517187 0
0.065625 0.514844 0
0 0.5125 0
1.05 0.55 0
0.984375 0.547656 0
0.91875 0.545313 0
1.04375 0.48125 0
0.978516 0.479199 0
0.913281 0.477148 0
1.0375 0.4125 0
0.972656 0.410742 0
0.907813 0.408984 0
0.91875 0.545313 0
0.853125 0.542969 0
0.7875 0.540625 0
0.913281 0.477148 0
0.848047 0.475098 0
0.782813 0.473047 0
0.907813 0.408984 0
0.842969 0.407227 0
0.778125 0.405469 0
1.0375 0.4125 0
0.972656 0.410742 0
0.907813 0.408984 0
1.03125 0.34375 0
0.966797 0.342285 0
0.902344 0.34082 0
1.025 0.275 0
0.960937 0.273828 0
0.896875 0.272656 0
0.907813 0.408984 0
0.842969 0.407227 0
0.778125 0.405469 0
0.902344 0.34082 0
0.837891 0.339355 0
0.773438 0.337891 0
0.896875 0.272656 0
0.832812 0.271484 0
0.76875 0.270313 0
0.7875 0.540625 0
0.721875 0.538281 0
0.65625 0.535937 0
0.782813 0.473047 0
0.717578 0.470996 0
0.652344 0.468945 0
0.778125 0.405469 0
0.713281 0.403711 0
0.648438 0.401953 0
0.65625 0.535937 0
0.590625 0.533594 0
0.525 0.53125 0
0.652344 0.468945 0
0.587109 0.466895 0
0.521875 0.464844 0
0.648438 0.401953 0
0.583594 0.400195 0
0.51875 0.398438 0
0.778125 0.405469 0
0.713281 0.403711 0
0.648438 0.401953 0
0.773438 0.337891 0
0.708984 0.336426 0
0.644531 0.334961 0
0.76875 0.270313 0
0.704687 0.269141 0
0.640625 0.267969 0
0.648438 0.401953 0
0.583594 0.400195 0
0.51875 0.398438 0
0.644531 0.334961 0
0.580078 0.333496 0
0.515625 0.332031 0
0.640625 0.267969 0
0.576562 0.266797 0
0.5125 0.265625 0
1.025 0.275 0
0.960937 0.273828 0
0.896875 0.272656 0
1.01875 0.20625 0
0.955078 0.205371 0
0.891406 0.204492 0
1.0125 0.1375 0
0.949219 0.136914 0
0.885937 0.136328 0
0.896875 0.272656 0
0.832812 0.271484 0
0.76875 0.270313 0
0.891406 0.204492 0
0.827734 0.203613 0
0.764062 0.202734 0
0.885937 0.136328 0
0.822656 0.135742 0
0.759375 0.135156 0
1.0125 0.1375 0
0.949219 0.136914 0
0.885937 0.136328 0
1.00625 0.06875 0
0.943359 0.068457 0
0.880469 0.0681641 0
1 0 0
0.9375 0 0
0.875 0 0
0.885937 0.136328 0
0.822656 0.135742 0
0.759375 0.135156 0
0.880469 0.0681641 0
0.817578 0.0678711 0
0.754687 0.0675781 0
0.875 0 0
0.8125 0 0
0.75 0 0
0.76875 0.270313 0
0.704687 0.269141 0
0.640625 0.267969 0
0.764062 0.202734 0
0.700391 0.201855 0
0.636719 0.200977 0
0.759375 0.135156 0
0.696094 0.13457 0
0.632812 0.133984 0
0.640625 0.267969 0
0.576562 0.266797 0
0.5125 0.265625 0
0.636719 0.200977 0
0.573047 0.200098 0
0.509375 0.199219 0
0.632812 0.133984 0
0.569531 0.133398 0
0.50625 0.132812 0
0.759375 0.135156 0
0.696094 0.13457 0
0.632812 0.133984 0
0.754687 0.0675781 0
0.691797 0.0672852 0
0.628906 0.0669922 0
0.75 0 0
0.6875 0 0
0.625 0 0
0.632812 0.133984 0
0.569531 0.133398 0
0.50625 0.132812 0
0.628906 0.0669922 0
0.566016 0.0666992 0
0.503125 0.0664062 0
0.625 0 0
0.5625 0 0
0.5 0 0
0.525 0.53125 0
0.459375 0.528906 0
0.39375 0.526563 0
0.521875 0.464844 0
0.456641 0.462793 0
0.391406 0.460742 0
0.51875 0.398438 0
0.453906 0.39668 0
0.389063 0.394922 0
0.39375 0.526563 0
0.328125 0.524219 0
0.2625 0.521875 0
0.391406 0.460742 0
0.326172 0.458691 0
0.260938 0.456641 0
0.389063 0.394922 0
0.324219 0.393164 0
0.259375 0.391406 0
0.51875 0.398438 0
0.453906 0.39668 0
0.389063 0.394922 0
0.515625 0.332031 0
0.451172 0.330566 0
0.386719 0.329102 0
0.5125 0.265625 0
0.448437 0.264453 0
0.384375 0.263281 0
0.389063 0.394922 0
0.324219 0.393164 0
0.259375 0.391406 0
0.386719 0.329102 0
0.322266 0.327637 0
0.257812 0.326172 0
0.384375 0.263281 0
0.320312 0.262109 0
0.25625 0.260937 0
0.2625 0.521875 0
0.196875 0.519531 0
0.13125 0.517187 0
0.260938 0.456641 0
0.195703 0.45459 0
0.130469 0.452539 0
0.259375 0.391406 0
0.194531 0.389648 0
0.129688 0.387891 0
0.13125 0.517187 0
0.065625 0.514844 0
0 0.5125 0
0.130469 0.452539 0
0.0652344 0.450488 0
0 0.448437 0
0.129688 0.387891 0
0.0648438 0.386133 0
0 0.384375 0
0.259375 0.391406 0
0.194531 0.389648 0
0.129688 0.387891 0
0.257812 0.326172 0
0.193359 0.324707 0
0.128906 0.323242 0
0.25625 0.260937 0
0.192187 0.259766 0
0.128125 0.258594 0
0.129688 0.387891 0
0.0648438 0.386133 0
0 0.384375 0
0.128906 0.323242 0
0.0644531 0.321777 0
0 0.320312 0
0.128125 0.258594 0
0.0640625 0.257422 0
0 0.25625 0
0.5125 0.265625 0
0.448437 0.264453 0
0.384375 0.263281 0
0.509375 0.199219 0
0.445703 0.19834 0
0.382031 0.197461 0
0.50625 0.132812 0
0.442969 0.132227 0
0.379688 0.131641 0
0.384375 0.263281 0
0.320312 0.262109 0
0.25625 0.260937 0
0.382031 0.197461 0
0.318359 0.196582 0
0.254687 0.195703 0
[...]
POINT_DATA 34560
VECTORS v double
1.27293 -0.333992 0
1.25413 -0.306221 0
1.23746 -0.280294 0
1.23951 -0.312484 0
1.21908 -0.288266 0
1.20098 -0.264736 0
1.20113 -0.291003 0
1.17969 -0.26941 0
1.16023 -0.24815 0
1.23746 -0.280294 0
1.22272 -0.254969 0
1.20991 -0.230968 0
1.20098 -0.264736 0
1.18455 -0.241753 0
1.17037 -0.219621 0
1.16023 -0.24815 0
1.14263 -0.227292 0
1.12704 -0.206933 0
1.20113 -0.291003 0
1.17969 -0.26941 0
1.16023 -0.24815 0
1.15699 -0.267152 0
1.13458 -0.248255 0
1.11414 -0.229483 0
1.10667 -0.244045 0
1.08382 -0.227569 0
1.06278 -0.211002 0
1.16023 -0.24815 0
1.14263 -0.227292 0
1.12704 -0.206933 0
1.11414 -0.229483 0
1.09552 -0.210863 0
1.07888 -0.192547 0
1.06278 -0.211002 0
1.04355 -0.194417 0
1.02619 -0.177955 0
1.20991 -0.230968 0
1.19815 -0.207749 0
1.18806 -0.185537 0
1.17037 -0.219621 0
1.15708 -0.198039 0
1.14578 -0.177266 0
1.12704 -0.206933 0
1.1126 -0.187022 0
1.10004 -0.167668 0
1.18806 -0.185537 0
1.17845 -0.164097 0
1.17022 -0.143453 0
1.14578 -0.177266 0
1.1349 -0.157028 0
1.12568 -0.137489 0
1.10004 -0.167668 0
1.08814 -0.148754 0
1.0779 -0.130375 0
1.12704 -0.206933 0
1.1126 -0.187022 0
1.10004 -0.167668 0
1.07888 -0.192547 0
1.06347 -0.174462 0
1.04993 -0.156765 0
1.02619 -0.177955 0
1.01014 -0.161588 0
0.995884 -0.145459 0
1.10004 -0.167668 0
1.08814 -0.148754 0
1.0779 -0.130375 0
1.04993 -0.156765 0
1.03723 -0.139349 0
1.02618 -0.122328 0
0.995884 -0.145459 0
0.982582 -0.129501 0
0.970926 -0.11382 0
1.10667 -0.244045 0
1.08382 -0.227569 0
1.06278 -0.211002 0
1.05119 -0.220487 0
1.02814 -0.206253 0
1.00678 -0.191787 0
0.99122 -0.197485 0
0.968153 -0.185235 0
0.946623 -0.172664 0
1.06278 -0.211002 0
1.04355 -0.194417 0
1.02619 -0.177955 0
1.00678 -0.191787 0
0.987135 -0.177161 0
0.969276 -0.162534 0
0.946623 -0.172664 0
0.926725 -0.15986 0
0.908505 -0.146962 0
0.99122 -0.197485 0
0.968153 -0.185235 0
0.946623 -0.172664 0
0.926785 -0.173832 0
0.903765 -0.16346 0
0.882195 -0.152737 0
0.857973 -0.150932 0
0.83518 -0.142257 0
0.813722 -0.133215 0
0.946623 -0.172664 0
0.926725 -0.15986 0
0.908505 -0.146962 0
0.882195 -0.152737 0
0.86216 -0.141734 0
0.84373 -0.130577 0
0.813722 -0.133215 0
0.793707 -0.123869 0
0.775206 -0.114335 0
1.02619 -0.177955 0
1.01014 -0.161588 0
0.995884 -0.145459 0
0.969276 -0.162534 0
0.952736 -0.147892 0
0.937941 -0.133372 0
0.908505 -0.146962 0
0.891618 -0.133974 0
0.876411 -0.12102 0
0.995884 -0.145459 0
0.982582 -0.129501 0
0.970926 -0.11382 0
0.937941 -0.133372 0
0.924189 -0.118928 0
0.912061 -0.104663 0
0.876411 -0.12102 0
0.86232 -0.10807 0
0.849828 -0.0952198 0
0.908505 -0.146962 0
0.891618 -0.133974 0
0.876411 -0.12102 0
0.84373 -0.130577 0
0.826616 -0.119269 0
0.811133 -0.107926 0
0.775206 -0.114335 0
0.757993 -0.104618 0
0.742351 -0.0948233 0
0.876411 -0.12102 0
0.86232 -0.10807 0
0.849828 -0.0952198 0
0.811133 -0.107926 0
0.796811 -0.0965254 0
0.78407 -0.0851573 0
0.742351 -0.0948233 0
0.727898 -0.0849337 0
0.715 -0.0750289 0
1.17022 -0.143453 0
1.16229 -0.123497 0
1.1555 -0.104201 0
1.12568 -0.137489 0
1.11678 -0.118467 0
1.10924 -0.100055 0
1.0779 -0.130375 0
1.06817 -0.112432 0
1.05987 -0.0949989 0
1.1555 -0.104201 0
1.14887 -0.0855254 0
1.14316 -0.0674095 0
1.10924 -0.100055 0
1.10192 -0.0821516 0
1.0957 -0.0647779 0
1.05987 -0.0949989 0
1.05195 -0.0780142 0
1.04523 -0.0615016 0
1.0779 -0.130375 0
1.06817 -0.112432 0
1.05987 -0.0949989 0
1.02618 -0.122328 0
1.01582 -0.105626 0
1.00691 -0.0893335 0
0.970926 -0.11382 0
0.960086 -0.098374 0
0.950708 -0.0832482 0
1.05987 -0.0949989 0
1.05195 -0.0780142 0
1.04523 -0.0615016 0
1.00691 -0.0893335 0
0.998563 -0.0734118 0
0.991459 -0.0578916 0
0.950708 -0.0832482 0
0.942032 -0.06843 0
0.934636 -0.0539558 0
1.14316 -0.0674095 0
1.13773 -0.0498418 0
1.13307 -0.0327569 0
1.0957 -0.0647779 0
1.08984 -0.0479007 0
1.08492 -0.0314952 0
1.04523 -0.0615016 0
1.03901 -0.0454487 0
1.03383 -0.0298507 0
1.13307 -0.0327569 0
1.1287 -0.01616 0
1.125 0 0
1.08492 -0.0314952 0
1.08038 -0.0155547 0
1.07666 0 0
1.03383 -0.0298507 0
1.02915 -0.0147127 0
1.02539 0 0
1.04523 -0.0615016 0
1.03901 -0.0454487 0
1.03383 -0.0298507 0
0.991459 -0.0578916 0
0.984995 -0.042783 0
0.979627 -0.0280996 0
0.934636 -0.0539558 0
0.927993 -0.0398598 0
0.92249 -0.0261584 0
1.03383 -0.0298507 0
1.02915 -0.0147127 0
1.02539 0 0
0.979627 -0.0280996 0
0.974916 -0.0138564 0
0.971191 0 0
0.92249 -0.0261584 0
0.917757 -0.0128836 0
0.914062 0 0
0.970926 -0.11382 0
0.960086 -0.098374 0
0.950708 -0.0832482 0
0.912061 -0.104663 0
0.900855 -0.0905502 0
0.891119 -0.0766761 0
0.849828 -0.0952198 0
0.83835 -0.0824581 0
0.828345 -0.0698649 0
0.950708 -0.0832482 0
0.942032 -0.06843 0
0.934636 -0.0539558 0
0.891119 -0.0766761 0
0.882207 -0.0630459 0
0.874604 -0.0497044 0
0.828345 -0.0698649 0
0.819269 -0.0574619 0
0.811529 -0.0452965 0
0.849828 -0.0952198 0
0.83835 -0.0824581 0
0.828345 -0.0698649 0
0.78407 -0.0851573 0
0.77241 -0.0738157 0
0.762233 -0.0625781 0
0.715 -0.0750289 0
0.703237 -0.0651074 0
0.692961 -0.0552381 0
0.828345 -0.0698649 0
0.819269 -0.0574619 0
0.811529 -0.0452965 0
0.762233 -0.0625781 0
0.753071 -0.0514721 0
0.74527 -0.040553 0
0.692961 -0.0552381 0
0.683773 -0.0454543 0
0.675971 -0.0358111 0
0.934636 -0.0539558 0
0.927993 -0.0398598 0
0.92249 -0.0261584 0
0.874604 -0.0497044 0
0.867853 -0.0366996 0
0.862283 -0.0240589 0
0.811529 -0.0452965 0
0.804726 -0.0334327 0
0.799136 -0.0219034 0
0.92249 -0.0261584 0
0.917757 -0.0128836 0
0.914062 0 0
0.862283 -0.0240589 0
0.857595 -0.0118309 0
0.854004 0 0
0.799136 -0.0219034 0
0.794511 -0.0107707 0
0.791016 0 0
0.811529 -0.0452965 0
0.804726 -0.0334327 0
0.799136 -0.0219034 0
0.74527 -0.040553 0
0.738477 -0.0298936 0
0.732929 -0.0195394 0
0.675971 -0.0358111 0
0.669239 -0.0263903 0
0.663776 -0.0172413 0
0.799136 -0.0219034 0
0.794511 -0.0107707 0
0.791016 0 0
0.732929 -0.0195394 0
0.728427 -0.00956776 0
0.725098 0 0
0.663776 -0.0172413 0
0.659418 -0.00845549 0
0.65625 0 0
0.857973 -0.150932 0
0.83518 -0.142257 0
0.813722 -0.133215 0
0.785245 -0.127807 0
0.762717 -0.120682 0
0.741444 -0.113211 0
0.708377 -0.105295 0
0.686239 -0.0996009 0
0.665261 -0.0935943 0
0.813722 -0.133215 0
0.793707 -0.123869 0
0.775206 -0.114335 0
0.741444 -0.113211 0
0.72151 -0.105443 0
0.703018 -0.0974839 0
0.665261 -0.0935943 0
0.645529 -0.087314 0
0.627164 -0.0808532 0
0.708377 -0.105295 0
0.686239 -0.0996009 0
0.665261 -0.0935943 0
0.627144 -0.082692 0
0.605493 -0.0783034 0
0.584938 -0.0736598 0
0.539741 -0.0608924 0
0.518912 -0.057722 0
0.499098 -0.0543573 0
0.665261 -0.0935943 0
0.645529 -0.087314 0
0.627164 -0.0808532 0
0.584938 -0.0736598 0
0.56553 -0.0687846 0
0.547424 -0.0637591 0
0.499098 -0.0543573 0
0.480338 -0.0508086 0
0.462803 -0.0471477 0
0.775206 -0.114335 0
0.757993 -0.104618 0
0.742351 -0.0948233 0
0.703018 -0.0974839 0
0.685777 -0.0893358 0
0.670058 -0.0810891 0
0.627164 -0.0808532 0
0.610004 -0.0742103 0
0.594312 -0.0674653 0
0.742351 -0.0948233 0
0.727898 -0.0849337 0
0.715 -0.0750289 0
0.670058 -0.0810891 0
0.655538 -0.0727277 0
0.642554 -0.064321 0
0.594312 -0.0674653 0
0.579817 -0.0606012 0
0.566829 -0.0536773 0
0.627164 -0.0808532 0
0.610004 -0.0742103 0
0.594312 -0.0674653 0
0.547424 -0.0637591 0
0.530469 -0.058576 0
0.514929 -0.0533044 0
0.462803 -0.0471477 0
0.446353 -0.043361 0
0.431247 -0.0395083 0
0.594312 -0.0674653 0
0.579817 -0.0606012 0
0.566829 -0.0536773 0
0.514929 -0.0533044 0
0.500568 -0.0479255 0
0.487681 -0.0424883 0
0.431247 -0.0395083 0
0.417278 -0.035569 0
0.404727 -0.0315849 0
0.539741 -0.0608924 0
0.518912 -0.057722 0
0.499098 -0.0543573 0
0.443133 -0.0397973 0
0.423688 -0.0377067 0
0.405205 -0.0354938 0
0.329256 -0.020697 0
0.312705 -0.0196184 0
0.296988 -0.0184829 0
0.499098 -0.0543573 0
0.480338 -0.0508086 0
0.462803 -0.0471477 0
0.405205 -0.0354938 0
0.387664 -0.0331554 0
0.371277 -0.0307514 0
0.296988 -0.0184829 0
0.282071 -0.0172711 0
0.26816 -0.0160324 0
0.329256 -0.020697 0
0.312705 -0.0196184 0
0.296988 -0.0184829 0
0.185618 -0.00612628 0
0.17486 -0.00577886 0
0.164748 -0.00542999 0
0 0 0
0 0 0
0 0 0
0.296988 -0.0184829 0
0.282071 -0.0172711 0
0.26816 -0.0160324 0
0.164748 -0.00542999 0
0.155122 -0.00504789 0
0.14624 -0.00467366 0
0 0 0
0 0 0
0 0 0
0.462803 -0.0471477 0
0.446353 -0.043361 0
0.431247 -0.0395083 0
0.371277 -0.0307514 0
0.355883 -0.0282627 0
0.34175 -0.0257385 0
0.26816 -0.0160324 0
0.255099 -0.0147423 0
0.243129 -0.013441 0
0.431247 -0.0395083 0
0.417278 -0.035569 0
0.404727 -0.0315849 0
0.34175 -0.0257385 0
0.328675 -0.0231573 0
0.316931 -0.0205543 0
0.243129 -0.013441 0
0.232065 -0.0121068 0
0.222144 -0.0107692 0
0.26816 -0.0160324 0
0.255099 -0.0147423 0
0.243129 -0.013441 0
0.14624 -0.00467366 0
0.13788 -0.00427388 0
0.130305 -0.00388417 0
0 0 0
0 0 0
0 0 0
0.243129 -0.013441 0
0.232065 -0.0121068 0
0.222144 -0.0107692 0
0.130305 -0.00388417 0
0.123281 -0.00347677 0
0.117058 -0.00308036 0
0 0 0
0 0 0
0 0 0
0.715 -0.0750289 0
0.703237 -0.0651074 0
0.692961 -0.0552381 0
0.642554 -0.064321 0
0.630746 -0.0558654 0
0.620432 -0.0474204 0
0.566829 -0.0536773 0
0.555047 -0.0466866 0
0.544758 -0.0396786 0
0.692961 -0.0552381 0
0.683773 -0.0454543 0
0.675971 -0.0358111 0
0.620432 -0.0474204 0
0.611271 -0.0390154 0
0.603522 -0.0307062 0
0.544758 -0.0396786 0
0.535675 -0.0326765 0
0.528031 -0.0257299 0
0.566829 -0.0536773 0
0.555047 -0.0466866 0
0.544758 -0.0396786 0
0.487681 -0.0424883 0
0.476008 -0.0369818 0
0.465824 -0.0314441 0
0.404727 -0.0315849 0
0.39337 -0.0275408 0
0.383466 -0.0234644 0
0.544758 -0.0396786 0
0.535675 -0.0326765 0
0.528031 -0.0257299 0
0.465824 -0.0314441 0
0.456882 -0.0258876 0
0.449402 -0.020352 0
0.383466 -0.0234644 0
0.374811 -0.0193558 0
0.367613 -0.0152446 0
0.675971 -0.0358111 0
0.669239 -0.0263903 0
0.663776 -0.0172413 0
0.603522 -0.0307062 0
0.5969 -0.0225756 0
0.591576 -0.0146847 0
0.528031 -0.0257299 0
0.521563 -0.0189189 0
0.516421 -0.0123061 0
0.663776 -0.0172413 0
0.659418 -0.00845549 0
0.65625 0 0
0.591576 -0.0146847 0
0.587412 -0.00713729 0
0.584473 0 0
0.516421 -0.0123061 0
0.512478 -0.00600886 0
0.509766 0 0
0.528031 -0.0257299 0
0.521563 -0.0189189 0
0.516421 -0.0123061 0
0.449402 -0.020352 0
0.443138 -0.014905 0
0.438227 -0.00961815 0
0.367613 -0.0152446 0
0.361651 -0.0111797 0
0.357048 -0.00721605 0
0.516421 -0.0123061 0
0.512478 -0.00600886 0
0.509766 0 0
0.438227 -0.00961815 0
0.43455 -0.00461084 0
0.432129 0 0
0.357048 -0.00721605 0
0.353685 -0.00349046 0
0.351562 0 0
0.404727 -0.0315849 0
0.39337 -0.0275408 0
0.383466 -0.0234644 0
0.316931 -0.0205543 0
0.306308 -0.0179127 0
0.297061 -0.0152507 0
0.222144 -0.0107692 0
0.213183 -0.00941099 0
0.2054 -0.00804507 0
0.383466 -0.0234644 0
0.374811 -0.0193558 0
0.367613 -0.0152446 0
0.297061 -0.0152507 0
0.289003 -0.0125607 0
0.282345 -0.00986106 0
0.2054 -0.00804507 0
0.198632 -0.00665987 0
0.193072 -0.00527056 0
0.222144 -0.0107692 0
0.213183 -0.00941099 0
0.2054 -0.00804507 0
0.117058 -0.00308036 0
0.111416 -0.00267481 0
0.106583 -0.00227351 0
0 0 0
0 0 0
0 0 0
0.2054 -0.00804507 0
0.198632 -0.00665987 0
0.193072 -0.00527056 0
0.106583 -0.00227351 0
0.102357 -0.00185968 0
0.0989332 -0.00145238 0
0 0 0
0 0 0
0 0 0
0.367613 -0.0152446 0
0.361651 -0.0111797 0
0.357048 -0.00721605 0
0.282345 -0.00986106 0
0.27689 -0.0071745 0
0.272766 -0.00454169 0
0.193072 -0.00527056 0
0.188569 -0.00387946 0
0.185248 -0.00248446 0
0.357048 -0.00721605 0
0.353685 -0.00349046 0
0.351562 0 0
0.272766 -0.00454169 0
0.269825 -0.00206956 0
0.268066 0 0
0.185248 -0.00248446 0
0.182946 -0.0011767 0
0.181641 0 0
0.193072 -0.00527056 0
0.188569 -0.00387946 0
0.185248 -0.00248446 0
0.0989332 -0.00145238 0
0.0961605 -0.00105063 0
0.0942275 -0.000634272 0
0 0 0
0 0 0
0 0 0
0.185248 -0.00248446 0
0.182946 -0.0011767 0
0.181641 0 0
0.0942275 -0.000634272 0
0.0929085 -0.000203818 0
0.0922852 0 0
0 0 0
0 0 0
0 0 0
1.81081 -0.356495 0
1.77145 -0.392339 0
1.7279 -0.422063 0
1.736 -0.306118 0
1.70089 -0.339451 0
1.66219 -0.367368 0
1.65621 -0.26341 0
1.62652 -0.294115 0
1.59329 -0.320336 0
1.7279 -0.422063 0
1.68348 -0.444416 0
1.63651 -0.460235 0
1.66219 -0.367368 0
1.62253 -0.389446 0
1.58058 -0.405778 0
1.59329 -0.320336 0
1.55905 -0.34174 0
1.5225 -0.358222 0
1.65621 -0.26341 0
1.62652 -0.294115 0
1.59329 -0.320336 0
1.5821 -0.22937 0
1.55617 -0.256167 0
1.52713 -0.279378 0
1.50497 -0.196006 0
1.48138 -0.220177 0
1.45498 -0.241316 0
1.59329 -0.320336 0
1.55905 -0.34174 0
1.5225 -0.358222 0
1.52713 -0.279378 0
1.49682 -0.298607 0
1.46432 -0.313825 0
1.45498 -0.241316 0
1.42743 -0.259138 0
1.39788 -0.273573 0
1.63651 -0.460235 0
1.5923 -0.469384 0
1.54736 -0.472264 0
1.58058 -0.405778 0
1.54077 -0.416406 0
1.50017 -0.421945 0
1.5225 -0.358222 0
1.48739 -0.36991 0
1.45133 -0.376995 0
1.54736 -0.472264 0
1.50688 -0.470374 0
1.46698 -0.463759 0
1.50017 -0.421945 0
1.46306 -0.422887 0
1.42634 -0.419696 0
1.45133 -0.376995 0
1.41776 -0.379929 0
1.38431 -0.379014 0
1.5225 -0.358222 0
1.48739 -0.36991 0
1.45133 -0.376995 0
1.46432 -0.313825 0
1.43257 -0.325019 0
1.3997 -0.33239 0
1.39788 -0.273573 0
1.36878 -0.284611 0
1.33864 -0.292391 0
1.45133 -0.376995 0
1.41776 -0.379929 0
1.38431 -0.379014 0
1.3997 -0.33239 0
1.36856 -0.336263 0
1.33727 -0.336828 0
1.33864 -0.292391 0
1.30977 -0.297113 0
1.2807 -0.298928 0
1.50497 -0.196006 0
1.48138 -0.220177 0
1.45498 -0.241316 0
1.42566 -0.167956 0
1.40444 -0.189688 0
1.38062 -0.208835 0
1.34717 -0.141465 0
1.32789 -0.160983 0
1.30614 -0.178335 0
1.45498 -0.241316 0
1.42743 -0.259138 0
1.39788 -0.273573 0
1.38062 -0.208835 0
1.35569 -0.225135 0
1.32886 -0.238548 0
1.30614 -0.178335 0
1.28327 -0.193267 0
1.25857 -0.205743 0
1.34717 -0.141465 0
1.32789 -0.160983 0
1.30614 -0.178335 0
1.26782 -0.118049 0
1.25012 -0.135219 0
1.23008 -0.150571 0
1.18653 -0.0959037 0
1.17006 -0.110993 0
1.15134 -0.124578 0
1.30614 -0.178335 0
1.28327 -0.193267 0
1.25857 -0.205743 0
1.23008 -0.150571 0
1.20889 -0.163889 0
1.18592 -0.175143 0
1.15134 -0.124578 0
1.1315 -0.136468 0
1.10994 -0.14663 0
1.39788 -0.273573 0
1.36878 -0.284611 0
1.33864 -0.292391 0
1.32886 -0.238548 0
1.30224 -0.24904 0
1.27456 -0.256714 0
1.25857 -0.205743 0
1.23386 -0.215707 0
1.20807 -0.223237 0
1.33864 -0.292391 0
1.30977 -0.297113 0
1.2807 -0.298928 0
1.27456 -0.256714 0
1.24779 -0.261721 0
1.22072 -0.264162 0
1.20807 -0.223237 0
1.18289 -0.228432 0
1.15731 -0.231375 0
1.25857 -0.205743 0
1.23386 -0.215707 0
1.20807 -0.223237 0
1.18592 -0.175143 0
1.16276 -0.184284 0
1.13849 -0.191361 0
1.10994 -0.14663 0
1.08806 -0.15501 0
1.06509 -0.161642 0
1.20807 -0.223237 0
1.18289 -0.228432 0
1.15731 -0.231375 0
1.13849 -0.191361 0
1.1146 -0.196452 0
1.09025 -0.199605 0
1.06509 -0.161642 0
1.04232 -0.166577 0
1.01903 -0.169847 0
1.46698 -0.463759 0
1.4324 -0.454066 0
1.39957 -0.440663 0
1.42634 -0.419696 0
1.39414 -0.413059 0
1.36334 -0.403528 0
1.38431 -0.379014 0
1.35432 -0.37495 0
1.32537 -0.368014 0
1.39957 -0.440663 0
1.37121 -0.425711 0
1.34505 -0.40875 0
1.36334 -0.403528 0
1.33633 -0.39189 0
1.31126 -0.37824 0
1.32537 -0.368014 0
1.2994 -0.358834 0
1.27492 -0.347615 0
1.38431 -0.379014 0
1.35432 -0.37495 0
1.32537 -0.368014 0
1.33727 -0.336828 0
1.3087 -0.334591 0
1.28084 -0.329757 0
1.2807 -0.298928 0
1.25381 -0.298204 0
1.22752 -0.295155 0
1.32537 -0.368014 0
1.2994 -0.358834 0
1.27492 -0.347615 0
1.28084 -0.329757 0
1.25546 -0.322893 0
1.23136 -0.314125 0
1.22752 -0.295155 0
1.20329 -0.290185 0
1.18017 -0.283416 0
1.34505 -0.40875 0
1.32301 -0.390991 0
1.30368 -0.371896 0
1.31126 -0.37824 0
1.28987 -0.363215 0
1.27075 -0.347024 0
1.27492 -0.347615 0
1.25351 -0.334954 0
1.23402 -0.321002 0
1.30368 -0.371896 0
1.28719 -0.352902 0
1.27293 -0.333992 0
1.27075 -0.347024 0
1.25402 -0.330131 0
1.23951 -0.312484 0
1.23402 -0.321002 0
1.21659 -0.306247 0
1.20113 -0.291003 0
1.27492 -0.347615 0
1.25351 -0.334954 0
1.23402 -0.321002 0
1.23136 -0.314125 0
1.21004 -0.303961 0
1.19044 -0.292542 0
1.18017 -0.283416 0
1.15944 -0.275243 0
1.14021 -0.265805 0
1.23402 -0.321002 0
1.21659 -0.306247 0
1.20113 -0.291003 0
1.19044 -0.292542 0
1.17281 -0.280259 0
1.15699 -0.267152 0
1.14021 -0.265805 0
1.12265 -0.255366 0
1.10667 -0.244045 0
1.2807 -0.298928 0
1.25381 -0.298204 0
1.22752 -0.295155 0
1.22072 -0.264162 0
1.19535 -0.264343 0
1.17039 -0.262432 0
1.15731 -0.231375 0
1.13305 -0.232301 0
1.10905 -0.231353 0
1.22752 -0.295155 0
1.20329 -0.290185 0
1.18017 -0.283416 0
1.17039 -0.262432 0
1.14709 -0.258763 0
1.12466 -0.253417 0
1.10905 -0.231353 0
1.08642 -0.228795 0
1.06451 -0.22471 0
1.15731 -0.231375 0
1.13305 -0.232301 0
1.10905 -0.231353 0
1.09025 -0.199605 0
1.06691 -0.201015 0
1.04372 -0.200776 0
1.01903 -0.169847 0
0.996521 -0.171599 0
0.974057 -0.171915 0
1.10905 -0.231353 0
1.08642 -0.228795 0
1.06451 -0.22471 0
1.04372 -0.200776 0
1.02166 -0.19911 0
1.0002 -0.196075 0
0.974057 -0.171915 0
0.952509 -0.170963 0
0.93144 -0.168794 0
1.18017 -0.283416 0
1.15944 -0.275243 0
1.14021 -0.265805 0
1.12466 -0.253417 0
1.10424 -0.246746 0
1.08509 -0.238898 0
1.06451 -0.22471 0
1.04432 -0.219397 0
1.02527 -0.212983 0
1.14021 -0.265805 0
1.12265 -0.255366 0
1.10667 -0.244045 0
1.08509 -0.238898 0
1.06743 -0.230133 0
1.05119 -0.220487 0
1.02527 -0.212983 0
1.00759 -0.205663 0
0.99122 -0.197485 0
1.06451 -0.22471 0
1.04432 -0.219397 0
1.02527 -0.212983 0
1.0002 -0.196075 0
0.980209 -0.191913 0
0.961204 -0.186722 0
0.93144 -0.168794 0
0.911611 -0.165602 0
0.892643 -0.161482 0
1.02527 -0.212983 0
1.00759 -0.205663 0
0.99122 -0.197485 0
0.961204 -0.186722 0
0.943412 -0.180676 0
0.926785 -0.173832 0
0.892643 -0.161482 0
0.874768 -0.156578 0
0.857973 -0.150932 0
1.18653 -0.0959037 0
1.17006 -0.110993 0
1.15134 -0.124578 0
1.10376 -0.0765395 0
1.08838 -0.0895354 0
1.07086 -0.101289 0
1.01824 -0.0579684 0
1.00389 -0.0690024 0
0.987377 -0.0790354 0
1.15134 -0.124578 0
1.1315 -0.136468 0
1.10994 -0.14663 0
1.07086 -0.101289 0
1.05218 -0.111633 0
1.03183 -0.120537 0
0.987377 -0.0790354 0
0.969718 -0.0879231 0
0.950379 -0.0956337 0
1.01824 -0.0579684 0
1.00389 -0.0690024 0
0.987377 -0.0790354 0
0.927142 -0.0415735 0
0.914024 -0.0505814 0
0.898738 -0.0588091 0
0.824756 -0.0266408 0
0.813393 -0.0336123 0
0.799743 -0.0400227 0
0.987377 -0.0790354 0
0.969718 -0.0879231 0
0.950379 -0.0956337 0
0.898738 -0.0588091 0
0.882226 -0.0661339 0
0.863997 -0.0725289 0
0.799743 -0.0400227 0
0.784775 -0.0457742 0
0.768001 -0.0508338 0
1.10994 -0.14663 0
1.08806 -0.15501 0
1.06509 -0.161642 0
1.03183 -0.120537 0
1.01105 -0.12795 0
0.989143 -0.133896 0
0.950379 -0.0956337 0
0.930512 -0.102121 0
0.909499 -0.107401 0
1.06509 -0.161642 0
1.04232 -0.166577 0
1.01903 -0.169847 0
0.989143 -0.133896 0
0.967288 -0.138413 0
0.944856 -0.141523 0
0.909499 -0.107401 0
0.888411 -0.111497 0
0.866697 -0.114424 0
0.950379 -0.0956337 0
0.930512 -0.102121 0
0.909499 -0.107401 0
0.863997 -0.0725289 0
0.845126 -0.0779536 0
0.825052 -0.0824132 0
0.768001 -0.0508338 0
0.750453 -0.0551693 0
0.731619 -0.0587747 0
0.909499 -0.107401 0
0.888411 -0.111497 0
0.866697 -0.114424 0
0.825052 -0.0824132 0
0.804777 -0.0859274 0
0.783808 -0.0884993 0
0.731619 -0.0587747 0
0.71245 -0.0616662 0
0.692504 -0.0638359 0
0.824756 -0.0266408 0
0.813393 -0.0336123 0
0.799743 -0.0400227 0
0.700697 -0.0148024 0
0.692048 -0.0196215 0
0.681025 -0.0240842 0
0.537442 -0.00557053 0
0.532316 -0.00824477 0
0.524894 -0.0107448 0
0.799743 -0.0400227 0
0.784775 -0.0457742 0
0.768001 -0.0508338 0
0.681025 -0.0240842 0
0.668539 -0.0281194 0
0.654131 -0.0316923 0
0.524894 -0.0107448 0
0.515989 -0.0130338 0
0.505194 -0.0150792 0
0.537442 -0.00557053 0
0.532316 -0.00824477 0
0.524894 -0.0107448 0
0.312341 -0.00143296 0
0.310609 -0.00226243 0
0.307128 -0.00303648 0
0 0 0
0 0 0
0 0 0
0.524894 -0.0107448 0
0.515989 -0.0130338 0
0.505194 -0.0150792 0
0.307128 -0.00303648 0
0.302642 -0.00375302 0
0.296654 -0.00438322 0
0 0 0
0 0 0
0 0 0
0.768001 -0.0508338 0
0.750453 -0.0551693 0
0.731619 -0.0587747 0
0.654131 -0.0316923 0
0.638778 -0.034781 0
0.622017 -0.0373695 0
0.505194 -0.0150792 0
0.493348 -0.0168767 0
0.480076 -0.0183996 0
0.731619 -0.0587747 0
0.71245 -0.0616662 0
0.692504 -0.0638359 0
0.622017 -0.0373695 0