# vtk DataFile Version 3.0
#This file was generated by the deal.II library on 2025/1/3 at 15:18:36
ASCII
DATASET UNSTRUCTURED_GRID

POINTS 34560 double
1.1 1.1 0
1.03125 1.09531 0
0.9625 1.09063 0
1.09375 1.03125 0
1.02539 1.02686 0
0.957031 1.02246 0
1.0875 0.9625 0
1.01953 0.958398 0
0.951563 0.954297 0
0.9625 1.09063 0
0.89375 1.08594 0
0.825 1.08125 0
0.957031 1.02246 0
0.888672 1.01807 0
0.820312 1.01367 0
0.951563 0.954297 0
0.883594 0.950195 0
0.815625 0.946094 0
1.0875 0.9625 0
1.01953 0.958398 0
0.951563 0.954297 0
1.08125 0.89375 0
1.01367 0.889941 0
0.946094 0.886133 0
1.075 0.825 0
1.00781 0.821484 0
0.940625 0.817969 0
0.951563 0.954297 0
0.883594 0.950195 0
0.815625 0.946094 0
0.946094 0.886133 0
0.878516 0.882324 0
0.810938 0.878516 0
0.940625 0.817969 0
0.873438 0.814453 0
0.80625 0.810937 0
0.825 1.08125 0
0.75625 1.07656 0
0.6875 1.07187 0
0.820312 1.01367 0
0.751953 1.00928 0
0.683594 1.00488 0
0.815625 0.946094 0
0.747656 0.941992 0
0.679688 0.937891 0
0.6875 1.07187 0
0.61875 1.06719 0
0.55 1.0625 0
0.683594 1.00488 0
0.615234 1.00049 0
0.546875 0.996094 0
0.679688 0.937891 0
0.611719 0.933789 0
0.54375 0.929688 0
0.815625 0.946094 0
0.747656 0.941992 0
0.679688 0.937891 0
0.810938 0.878516 0
0.743359 0.874707 0
0.675781 0.870898 0
0.80625 0.810937 0
0.739063 0.807422 0
0.671875 0.803906 0
0.679688 0.937891 0
0.611719 0.933789 0
0.54375 0.929688 0
0.675781 0.870898 0
0.608203 0.86709 0
0.540625 0.863281 0
0.671875 0.803906 0
0.604688 0.800391 0
0.5375 0.796875 0
1.075 0.825 0
1.00781 0.821484 0
0.940625 0.817969 0
1.06875 0.75625 0
1.00195 0.753027 0
0.935156 0.749805 0
1.0625 0.6875 0
0.996094 0.68457 0
0.929688 0.681641 0
0.940625 0.817969 0
0.873438 0.814453 0
0.80625 0.810937 0
0.935156 0.749805 0
0.868359 0.746582 0
0.801563 0.743359 0
0.929688 0.681641 0
0.863281 0.678711 0
0.796875 0.675781 0
1.0625 0.6875 0
0.996094 0.68457 0
0.929688 0.681641 0
1.05625 0.61875 0
0.990234 0.616113 0
0.924219 0.613477 0
1.05 0.55 0
0.984375 0.547656 0
0.91875 0.545313 0
0.929688 0.681641 0
0.863281 0.678711 0
0.796875 0.675781 0
0.924219 0.613477 0
0.858203 0.61084 0
0.792188 0.608203 0
0.91875 0.545313 0
0.853125 0.542969 0
0.7875 0.540625 0
0.80625 0.810937 0
0.739063 0.807422 0
0.671875 0.803906 0
0.801563 0.743359 0
0.734766 0.740137 0
0.667969 0.736914 0
0.796875 0.675781 0
0.730469 0.672852 0
0.664062 0.669922 0
0.671875 0.803906 0
0.604688 0.800391 0
0.5375 0.796875 0
0.667969 0.736914 0
0.601172 0.733691 0
0.534375 0.730469 0
0.664062 0.669922 0
0.597656 0.666992 0
0.53125 0.664062 0
0.796875 0.675781 0
0.730469 0.672852 0
0.664062 0.669922 0
0.792188 0.608203 0
0.726172 0.605566 0
0.660156 0.60293 0
0.7875 0.540625 0
0.721875 0.538281 0
0.65625 0.535937 0
0.664062 0.669922 0
0.597656 0.666992 0
0.53125 0.664062 0
0.660156 0.60293 0
0.594141 0.600293 0
0.528125 0.597656 0
0.65625 0.535937 0
0.590625 0.533594 0
0.525 0.53125 0
0.55 1.0625 0
0.48125 1.05781 0
0.4125 1.05313 0
0.546875 0.996094 0
0.478516 0.991699 0
0.410156 0.987305 0
0.54375 0.929688 0
0.475781 0.925586 0
0.407813 0.921484 0
0.4125 1.05313 0
0.34375 1.04844 0
0.275 1.04375 0
0.410156 0.987305 0
0.341797 0.98291 0
0.273438 0.978516 0
0.407813 0.921484 0
0.339844 0.917383 0
0.271875 0.913281 0
0.54375 0.929688 0
0.475781 0.925586 0
0.407813 0.921484 0
0.540625 0.863281 0
0.473047 0.859473 0
0.405469 0.855664 0
0.5375 0.796875 0
0.470313 0.793359 0
0.403125 0.789844 0
0.407813 0.921484 0
0.339844 0.917383 0
0.271875 0.913281 0
0.405469 0.855664 0
0.337891 0.851855 0
0.270313 0.848047 0
0.403125 0.789844 0
0.335938 0.786328 0
0.26875 0.782813 0
0.275 1.04375 0
0.20625 1.03906 0
0.1375 1.03437 0
0.273438 0.978516 0
0.205078 0.974121 0
0.136719 0.969727 0
0.271875 0.913281 0
0.203906 0.90918 0
0.135938 0.905078 0
0.1375 1.03437 0
0.06875 1.02969 0
0 1.025 0
0.136719 0.969727 0
0.0683594 0.965332 0
0 0.960937 0
0.135938 0.905078 0
0.0679688 0.900977 0
0 0.896875 0
0.271875 0.913281 0
0.203906 0.90918 0
0.135938 0.905078 0
0.270313 0.848047 0
0.202734 0.844238 0
0.135156 0.84043 0
0.26875 0.782813 0
0.201563 0.779297 0
0.134375 0.775781 0
0.135938 0.905078 0
0.0679688 0.900977 0
0 0.896875 0
0.135156 0.84043 0
0.0675781 0.836621 0
0 0.832812 0
0.134375 0.775781 0
0.0671875 0.772266 0
0 0.76875 0
0.5375 0.796875 0
0.470313 0.793359 0
0.403125 0.789844 0
0.534375 0.730469 0
0.467578 0.727246 0
0.400781 0.724023 0
0.53125 0.664062 0
0.464844 0.661133 0
0.398438 0.658203 0
0.403125 0.789844 0
0.335938 0.786328 0
0.26875 0.782813 0
0.400781 0.724023 0
0.333984 0.720801 0
0.267188 0.717578 0
0.398438 0.658203 0
0.332031 0.655273 0
0.265625 0.652344 0
0.53125 0.664062 0
0.464844 0.661133 0
0.398438 0.658203 0
0.528125 0.597656 0
0.462109 0.59502 0
0.396094 0.592383 0
0.525 0.53125 0
0.459375 0.528906 0
0.39375 0.526563 0
0.398438 0.658203 0
0.332031 0.655273 0
0.265625 0.652344 0
0.396094 0.592383 0
0.330078 0.589746 0
0.264062 0.587109 0
0.39375 0.526563 0
0.328125 0.524219 0
0.2625 0.521875 0
0.26875 0.782813 0
0.201563 0.779297 0
0.134375 0.775781 0
0.267188 0.717578 0
0.200391 0.714355 0
0.133594 0.711133 0
0.265625 0.652344 0
0.199219 0.649414 0
0.132812 0.646484 0
0.134375 0.775781 0
0.0671875 0.772266 0
0 0.76875 0
0.133594 0.711133 0
0.0667969 0.70791 0
0 0.704687 0
0.132812 0.646484 0
0.0664062 0.643555 0
0 0.640625 0
0.265625 0.652344 0
0.199219 0.649414 0
0.132812 0.646484 0
0.264062 0.587109 0
0.198047 0.584473 0
0.132031 0.581836 0
0.2625 0.521875 0
0.196875 0.519531 0
0.13125 0.517187 0
0.132812 0.646484 0
0.0664062 0.643555 0
0 0.640625 0
0.132031 0.581836 0
0.0660156 0.579199 0
0 0.576562 0
0.13125 0.517187 0
0.065625 0.514844 0
0 0.5125 0
1.05 0.55 0
0.984375 0.547656 0
0.91875 0.545313 0
1.04375 0.48125 0
0.978516 0.479199 0
0.913281 0.477148 0
1.0375 0.4125 0
0.972656 0.410742 0
0.907813 0.408984 0
0.91875 0.545313 0
0.853125 0.542969 0
0.7875 0.540625 0
0.913281 0.477148 0
0.848047 0.475098 0
0.782813 0.473047 0
0.907813 0.408984 0
0.842969 0.407227 0
0.778125 0.405469 0
1.0375 0.4125 0
0.972656 0.410742 0
0.907813 0.408984 0
1.03125 0.34375 0
0.966797 0.342285 0
0.902344 0.34082 0
1.025 0.275 0
0.960937 0.273828 0
0.896875 0.272656 0
0.907813 0.408984 0
0.842969 0.407227 0
0.778125 0.405469 0
0.902344 0.34082 0
0.837891 0.339355 0
0.773438 0.337891 0
0.896875 0.272656 0
0.832812 0.271484 0
0.76875 0.270313 0
0.7875 0.540625 0
0.721875 0.538281 0
0.65625 0.535937 0
0.782813 0.473047 0
0.717578 0.470996 0
0.652344 0.468945 0
0.778125 0.405469 0
0.713281 0.403711 0
0.648438 0.401953 0
0.65625 0.535937 0
0.590625 0.533594 0
0.525 0.53125 0
0.652344 0.468945 0
0.587109 0.466895 0
0.521875 0.464844 0
0.648438 0.401953 0
0.583594 0.400195 0
0.51875 0.398438 0
0.778125 0.405469 0
0.713281 0.403711 0
0.648438 0.401953 0
0.773438 0.337891 0
0.708984 0.336426 0
0.644531 0.334961 0
0.76875 0.270313 0
0.704687 0.269141 0
0.640625 0.267969 0
0.648438 0.401953 0
0.583594 0.400195 0
0.51875 0.398438 0
0.644531 0.334961 0
0.580078 0.333496 0
0.515625 0.332031 0
0.640625 0.267969 0
0.576562 0.266797 0
0.5125 0.265625 0
1.025 0.275 0
0.960937 0.273828 0
0.896875 0.272656 0
1.01875 0.20625 0
0.955078 0.205371 0
0.891406 0.204492 0
1.0125 0.1375 0
0.949219 0.136914 0
0.885937 0.136328 0
0.896875 0.272656 0
0.832812 0.271484 0
0.76875 0.270313 0
0.891406 0.204492 0
0.827734 0.203613 0
0.764062 0.202734 0
0.885937 0.136328 0
0.822656 0.135742 0
0.759375 0.135156 0
1.0125 0.1375 0
0.949219 0.136914 0
0.885937 0.136328 0
1.00625 0.06875 0
0.943359 0.068457 0
0.880469 0.0681641 0
1 0 0
0.9375 0 0
0.875 0 0
0.885937 0.136328 0
0.822656 0.135742 0
0.759375 0.135156 0
0.880469 0.0681641 0
0.817578 0.0678711 0
0.754687 0.0675781 0
0.875 0 0
0.8125 0 0
0.75 0 0
0.76875 0.270313 0
0.704687 0.269141 0
0.640625 0.267969 0
0.764062 0.202734 0
0.700391 0.201855 0
0.636719 0.200977 0
0.759375 0.135156 0
0.696094 0.13457 0
0.632812 0.133984 0
0.640625 0.267969 0
0.576562 0.266797 0
0.5125 0.265625 0
0.636719 0.200977 0
0.573047 0.200098 0
0.509375 0.199219 0
0.632812 0.133984 0
0.569531 0.133398 0
0.50625 0.132812 0
0.759375 0.135156 0
0.696094 0.13457 0
0.632812 0.133984 0
0.754687 0.0675781 0
0.691797 0.0672852 0
0.628906 0.0669922 0
0.75 0 0
0.6875 0 0
0.625 0 0
0.632812 0.133984 0
0.569531 0.133398 0
0.50625 0.132812 0
0.628906 0.0669922 0
0.566016 0.0666992 0
0.503125 0.0664062 0
0.625 0 0
0.5625 0 0
0.5 0 0
0.525 0.53125 0
0.459375 0.528906 0
0.39375 0.526563 0
0.521875 0.464844 0
0.456641 0.462793 0
0.391406 0.460742 0
0.51875 0.398438 0
0.453906 0.39668 0
0.389063 0.394922 0
0.39375 0.526563 0
0.328125 0.524219 0
0.2625 0.521875 0
0.391406 0.460742 0
0.326172 0.458691 0
0.260938 0.456641 0
0.389063 0.394922 0
0.324219 0.393164 0
0.259375 0.391406 0
0.51875 0.398438 0
0.453906 0.39668 0
0.389063 0.394922 0
0.515625 0.332031 0
0.451172 0.330566 0
0.386719 0.329102 0
0.5125 0.265625 0
0.448437 0.264453 0
0.384375 0.263281 0
0.389063 0.394922 0
0.324219 0.393164 0
0.259375 0.391406 0
0.386719 0.329102 0
0.322266 0.327637 0
0.257812 0.326172 0
0.384375 0.263281 0
0.320312 0.262109 0
0.25625 0.260937 0
0.2625 0.521875 0
0.196875 0.519531 0
0.13125 0.517187 0
0.260938 0.456641 0
0.195703 0.45459 0
0.130469 0.452539 0
0.259375 0.391406 0
0.194531 0.389648 0
0.129688 0.387891 0
0.13125 0.517187 0
0.065625 0.514844 0
0 0.5125 0
0.130469 0.452539 0
0.0652344 0.450488 0
0 0.448437 0
0.129688 0.387891 0
0.0648438 0.386133 0
0 0.384375 0
0.259375 0.391406 0
0.194531 0.389648 0
0.129688 0.387891 0
0.257812 0.326172 0
0.193359 0.324707 0
0.128906 0.323242 0
0.25625 0.260937 0
0.192187 0.259766 0
0.128125 0.258594 0
0.129688 0.387891 0
0.0648438 0.386133 0
0 0.384375 0
0.128906 0.323242 0
0.0644531 0.321777 0
0 0.320312 0
0.128125 0.258594 0
0.0640625 0.257422 0
0 0.25625 0
0.5125 0.265625 0
0.448437 0.264453 0
0.384375 0.263281 0
0.509375 0.199219 0
0.445703 0.19834 0
0.382031 0.197461 0
0.50625 0.132812 0
0.442969 0.132227 0
0.379688 0.131641 0
0.384375 0.263281 0
0.320312 0.262109 0
0.25625 0.260937 0
0.382031 0.197461 0
0.318359 0.196582 0
0.254687 0.195703 0
[...]
POINT_DATA 34560
VECTORS v double
1.19963 -0.243932 0
1.18957 -0.214703 0
1.18131 -0.188617 0
1.16859 -0.231273 0
1.15634 -0.205138 0
1.14636 -0.180951 0
1.13273 -0.217653 0
1.119 -0.19381 0
1.1072 -0.171561 0
1.18131 -0.188617 0
1.17427 -0.164395 0
1.16867 -0.142686 0
1.14636 -0.180951 0
1.13729 -0.158568 0
1.13009 -0.138183 0
1.1072 -0.171561 0
1.0966 -0.150902 0
1.0877 -0.131888 0
1.13273 -0.217653 0
1.119 -0.19381 0
1.1072 -0.171561 0
1.0908 -0.201552 0
1.07565 -0.180207 0
1.06249 -0.160158 0
1.04279 -0.185532 0
1.02679 -0.166449 0
1.01265 -0.148378 0
1.1072 -0.171561 0
1.0966 -0.150902 0
1.0877 -0.131888 0
1.06249 -0.160158 0
1.05057 -0.141397 0
1.04039 -0.124026 0
1.01265 -0.148378 0
0.999827 -0.131369 0
0.988671 -0.115511 0
1.16867 -0.142686 0
1.16349 -0.122903 0
1.15935 -0.1052 0
1.13009 -0.138183 0
1.12317 -0.119514 0
1.11767 -0.102667 0
1.0877 -0.131888 0
1.07939 -0.11443 0
1.07245 -0.0985377 0
1.15935 -0.1052 0
1.15523 -0.0892415 0
1.15179 -0.0749993 0
1.11767 -0.102667 0
1.11215 -0.0873742 0
1.10761 -0.0736496 0
1.07245 -0.0985377 0
1.06575 -0.0840701 0
1.06009 -0.0709976 0
1.0877 -0.131888 0
1.07939 -0.11443 0
1.07245 -0.0985377 0
1.04039 -0.124026 0
1.03093 -0.107954 0
1.02287 -0.0932407 0
0.988671 -0.115511 0
0.978356 -0.100771 0
0.96942 -0.0872003 0
1.07245 -0.0985377 0
1.06575 -0.0840701 0
1.06009 -0.0709976 0
1.02287 -0.0932407 0
1.01524 -0.0797651 0
1.00868 -0.0675239 0
0.96942 -0.0872003 0
0.961057 -0.0747222 0
0.953776 -0.063336 0
1.04279 -0.185532 0
1.02679 -0.166449 0
1.01265 -0.148378 0
0.989399 -0.168661 0
0.972784 -0.151744 0
0.957955 -0.135625 0
0.931179 -0.151856 0
0.914168 -0.136919 0
0.898833 -0.122607 0
1.01265 -0.148378 0
0.999827 -0.131369 0
0.988671 -0.115511 0
0.957955 -0.135625 0
0.944446 -0.120361 0
0.932542 -0.106058 0
0.898833 -0.122607 0
0.884823 -0.108998 0
0.872353 -0.0961861 0
0.931179 -0.151856 0
0.914168 -0.136919 0
0.898833 -0.122607 0
0.867986 -0.134192 0
0.850708 -0.121206 0
0.835056 -0.108715 0
0.800095 -0.116913 0
0.782742 -0.105734 0
0.766936 -0.0949362 0
0.898833 -0.122607 0
0.884823 -0.108998 0
0.872353 -0.0961861 0
0.835056 -0.108715 0
0.820711 -0.0967879 0
0.807867 -0.0855168 0
0.766936 -0.0949362 0
0.752426 -0.0845914 0
0.739365 -0.0747827 0
0.988671 -0.115511 0
0.978356 -0.100771 0
0.96942 -0.0872003 0
0.932542 -0.106058 0
0.921567 -0.092704 0
0.911944 -0.0803535 0
0.872353 -0.0961861 0
0.860882 -0.084182 0
0.850735 -0.073037 0
0.96942 -0.0872003 0
0.961057 -0.0747222 0
0.953776 -0.063336 0
0.911944 -0.0803535 0
0.903016 -0.0689564 0
0.895176 -0.0585193 0
0.850735 -0.073037 0
0.841382 -0.0627258 0
0.833117 -0.0532562 0
0.872353 -0.0961861 0
0.860882 -0.084182 0
0.850735 -0.073037 0
0.807867 -0.0855168 0
0.796064 -0.0749185 0
0.785566 -0.0650472 0
0.739365 -0.0747827 0
0.727381 -0.0655386 0
0.716676 -0.0569069 0
0.850735 -0.073037 0
0.841382 -0.0627258 0
0.833117 -0.0532562 0
0.785566 -0.0650472 0
0.775936 -0.0558904 0
0.767397 -0.0474629 0
0.716676 -0.0569069 0
0.7069 -0.0488903 0
0.698213 -0.0415019 0
1.15179 -0.0749993 0
1.1482 -0.0622205 0
1.14502 -0.0508057 0
1.10761 -0.0736496 0
1.10295 -0.0612602 0
1.09894 -0.0501406 0
1.06009 -0.0709976 0
1.05452 -0.0591578 0
1.04969 -0.0484814 0
1.14502 -0.0508057 0
1.14163 -0.0405188 0
1.13845 -0.0312358 0
1.09894 -0.0501406 0
1.09481 -0.0400756 0
1.09107 -0.0309548 0
1.04969 -0.0484814 0
1.04491 -0.0387886 0
1.04063 -0.0299747 0
1.06009 -0.0709976 0
1.05452 -0.0591578 0
1.04969 -0.0484814 0
1.00868 -0.0675239 0
1.0024 -0.0563836 0
0.996909 -0.0462965 0
0.953776 -0.063336 0
0.946922 -0.0529449 0
0.940893 -0.0435045 0
1.04969 -0.0484814 0
1.04491 -0.0387886 0
1.04063 -0.0299747 0
0.996909 -0.0462965 0
0.991638 -0.0371077 0
0.986939 -0.0287233 0
0.940893 -0.0435045 0
0.935226 -0.0348885 0
0.930188 -0.027012 0
1.13845 -0.0312358 0
1.1351 -0.0227065 0
1.13182 -0.0147982 0
1.09107 -0.0309548 0
1.08726 -0.0225555 0
1.08369 -0.0147401 0
1.04063 -0.0299747 0
1.03644 -0.0218371 0
1.0326 -0.014255 0
1.13182 -0.0147982 0
1.12841 -0.00725556 0
1.125 0 0
1.08369 -0.0147401 0
1.0801 -0.00727068 0
1.07666 0 0
1.0326 -0.014255 0
1.02886 -0.00700588 0
1.02539 0 0
1.04063 -0.0299747 0
1.03644 -0.0218371 0
1.0326 -0.014255 0
0.986939 -0.0287233 0
0.98247 -0.020962 0
0.978437 -0.0137169 0
0.930188 -0.027012 0
0.9255 -0.0197149 0
0.921317 -0.0128957 0
1.0326 -0.014255 0
1.02886 -0.00700588 0
1.02539 0 0
0.978437 -0.0137169 0
0.97464 -0.0067725 0
0.971191 0 0
0.921317 -0.0128957 0
0.917477 -0.00635448 0
0.914062 0 0
0.953776 -0.063336 0
0.946922 -0.0529449 0
0.940893 -0.0435045 0
0.895176 -0.0585193 0
0.887885 -0.0489681 0
0.88145 -0.0402689 0
0.833117 -0.0532562 0
0.825506 -0.0445772 0
0.818772 -0.0366595 0
0.940893 -0.0435045 0
0.935226 -0.0348885 0
0.930188 -0.027012 0
0.88145 -0.0402689 0
0.875496 -0.032317 0
0.870218 -0.0250398 0
0.818772 -0.0366595 0
0.81262 -0.0294205 0
0.807181 -0.0227954 0
0.833117 -0.0532562 0
0.825506 -0.0445772 0
0.818772 -0.0366595 0
0.767397 -0.0474629 0
0.759594 -0.0397276 0
0.752687 -0.0326641 0
0.698213 -0.0415019 0
0.690328 -0.0347198 0
0.683352 -0.0285265 0
0.818772 -0.0366595 0
0.81262 -0.0294205 0
0.807181 -0.0227954 0
0.752687 -0.0326641 0
0.746441 -0.0262053 0
0.740938 -0.0202991 0
0.683352 -0.0285265 0
0.677102 -0.0228721 0
0.671615 -0.0177114 0
0.930188 -0.027012 0
0.9255 -0.0197149 0
0.921317 -0.0128957 0
0.870218 -0.0250398 0
0.865395 -0.0182921 0
0.861136 -0.0119813 0
0.807181 -0.0227954 0
0.802284 -0.0166559 0
0.797998 -0.0109154 0
0.921317 -0.0128957 0
0.917477 -0.00635448 0
0.914062 0 0
0.861136 -0.0119813 0
0.857323 -0.00591796 0
0.854004 0 0
0.797998 -0.0109154 0
0.794234 -0.00539525 0
0.791016 0 0
0.807181 -0.0227954 0
0.802284 -0.0166559 0
0.797998 -0.0109154 0
0.740938 -0.0202991 0
0.736047 -0.0148308 0
0.731806 -0.00972274 0
0.671615 -0.0177114 0
0.666794 -0.0129459 0
0.662649 -0.00850269 0
0.797998 -0.0109154 0
0.794234 -0.00539525 0
0.791016 0 0
0.731806 -0.00972274 0
0.728153 -0.00480627 0
0.725098 0 0
0.662649 -0.00850269 0
0.659137 -0.004223 0
0.65625 0 0
0.800095 -0.116913 0
0.782742 -0.105734 0
0.766936 -0.0949362 0
0.727738 -0.0990975 0
0.710368 -0.0896697 0
0.69451 -0.0805421 0
0.650887 -0.0816678 0
0.63362 -0.0739076 0
0.617814 -0.0663792 0
0.766936 -0.0949362 0
0.752426 -0.0845914 0
0.739365 -0.0747827 0
0.69451 -0.0805421 0
0.679927 -0.0717776 0
0.666768 -0.0634518 0
0.617814 -0.0663792 0
0.603282 -0.0591395 0
0.590148 -0.052254 0
0.650887 -0.0816678 0
0.63362 -0.0739076 0
0.617814 -0.0663792 0
0.569225 -0.0637819 0
0.552147 -0.0576631 0
0.536524 -0.0517305 0
0.48117 -0.0465085 0
0.46465 -0.0419853 0
0.449554 -0.037608 0
0.617814 -0.0663792 0
0.603282 -0.0591395 0
0.590148 -0.052254 0
0.536524 -0.0517305 0
0.522169 -0.0460267 0
0.509208 -0.0406066 0
0.449554 -0.037608 0
0.43572 -0.0334051 0
0.423258 -0.0294212 0
0.739365 -0.0747827 0
0.727381 -0.0655386 0
0.716676 -0.0569069 0
0.666768 -0.0634518 0
0.654714 -0.0555938 0
0.643928 -0.0482468 0
0.590148 -0.052254 0
0.57815 -0.0457515 0
0.567413 -0.0396691 0
0.716676 -0.0569069 0
0.7069 -0.0488903 0
0.698213 -0.0415019 0
0.643928 -0.0482468 0
0.634123 -0.041418 0
0.625411 -0.0351224 0
0.567413 -0.0396691 0
0.557702 -0.0340182 0
0.549088 -0.028811 0
0.590148 -0.052254 0
0.57815 -0.0457515 0
0.567413 -0.0396691 0
0.509208 -0.0406066 0
0.497409 -0.0354932 0
0.486875 -0.0307164 0
0.423258 -0.0294212 0
0.411967 -0.0256709 0
0.401923 -0.0221775 0
0.567413 -0.0396691 0
0.557702 -0.0340182 0
0.549088 -0.028811 0
0.486875 -0.0307164 0
0.477403 -0.0262855 0
0.469039 -0.0222107 0
0.401923 -0.0221775 0
0.392953 -0.0189463 0
0.385077 -0.0159846 0
0.48117 -0.0465085 0
0.46465 -0.0419853 0
0.449554 -0.037608 0
0.383893 -0.029617 0
0.368646 -0.0266363 0
0.354788 -0.0237692 0
0.272951 -0.0149478 0
0.260492 -0.0134079 0
0.249251 -0.0119387 0
0.449554 -0.037608 0
0.43572 -0.0334051 0
0.423258 -0.0294212 0
0.354788 -0.0237692 0
0.342143 -0.0210308 0
0.330815 -0.0184513 0
0.249251 -0.0119387 0
0.23906 -0.0105357 0
0.229999 -0.00922443 0
0.272951 -0.0149478 0
0.260492 -0.0134079 0
0.249251 -0.0119387 0
0.144607 -0.00414975 0
0.137197 -0.00369141 0
0.130608 -0.00326584 0
0 0 0
0 0 0
0 0 0
0.249251 -0.0119387 0
0.23906 -0.0105357 0
0.229999 -0.00922443 0
0.130608 -0.00326584 0
0.124657 -0.00285589 0
0.119435 -0.00248281 0
0 0 0
0 0 0
0 0 0
0.423258 -0.0294212 0
0.411967 -0.0256709 0
0.401923 -0.0221775 0
0.330815 -0.0184513 0
0.320613 -0.0160374 0
0.311594 -0.0138032 0
0.229999 -0.00922443 0
0.221899 -0.0080018 0
0.214791 -0.00687924 0
0.401923 -0.0221775 0
0.392953 -0.0189463 0
0.385077 -0.0159846 0
0.311594 -0.0138032 0
0.303599 -0.0117494 0
0.296628 -0.00987937 0
0.214791 -0.00687924 0
0.208537 -0.00585185 0
0.203122 -0.00492396 0
0.229999 -0.00922443 0
0.221899 -0.0080018 0
0.214791 -0.00687924 0
0.119435 -0.00248281 0
0.114789 -0.00213548 0
0.110754 -0.00182475 0
0 0 0
0 0 0
0 0 0
0.214791 -0.00687924 0
0.208537 -0.00585185 0
0.203122 -0.00492396 0
0.110754 -0.00182475 0
0.10722 -0.00154078 0
0.104178 -0.00129065 0
0 0 0
0 0 0
0 0 0
0.698213 -0.0415019 0
0.690328 -0.0347198 0
0.683352 -0.0285265 0
0.625411 -0.0351224 0
0.617558 -0.0293447 0
0.610628 -0.0240733 0
0.549088 -0.028811 0
0.541381 -0.0240391 0
0.534608 -0.0196928 0
0.683352 -0.0285265 0
0.677102 -0.0228721 0
0.671615 -0.0177114 0
0.610628 -0.0240733 0
0.604472 -0.0192684 0
0.599098 -0.0148961 0
0.534608 -0.0196928 0
0.528644 -0.0157434 0
0.523471 -0.0121633 0
0.549088 -0.028811 0
0.541381 -0.0240391 0
0.534608 -0.0196928 0
0.469039 -0.0222107 0
0.461615 -0.0184842 0
0.455134 -0.0150987 0
0.385077 -0.0159846 0
0.378149 -0.0132846 0
0.372148 -0.0108391 0
0.534608 -0.0196928 0
0.528644 -0.0157434 0
0.523471 -0.0121633 0
0.455134 -0.0150987 0
0.449485 -0.012031 0
0.444628 -0.00926209 0
0.372148 -0.0108391 0
0.366974 -0.00862969 0
0.362572 -0.00664368 0
0.671615 -0.0177114 0
0.666794 -0.0129459 0
0.662649 -0.00850269 0
0.599098 -0.0148961 0
0.594424 -0.0108715 0
0.590446 -0.0071325 0
0.523471 -0.0121633 0
0.519018 -0.00888452 0
0.515265 -0.00585178 0
0.662649 -0.00850269 0
0.659137 -0.004223 0
0.65625 0 0
0.590446 -0.0071325 0
0.587133 -0.00353106 0
0.584473 0 0
0.515265 -0.00585178 0
0.512187 -0.00293188 0
0.509766 0 0
0.523471 -0.0121633 0
0.519018 -0.00888452 0
0.515265 -0.00585178 0
0.444628 -0.00926209 0
0.44049 -0.00673777 0
0.437041 -0.00442058 0
0.362572 -0.00664368 0
0.358863 -0.00484279 0
0.355807 -0.00319693 0
0.515265 -0.00585178 0
0.512187 -0.00293188 0
0.509766 0 0
0.437041 -0.00442058 0
0.434259 -0.00219447 0
0.432129 0 0
0.355807 -0.00319693 0
0.353378 -0.0016253 0
0.351562 0 0
0.385077 -0.0159846 0
0.378149 -0.0132846 0
0.372148 -0.0108391 0
0.296628 -0.00987937 0
0.290552 -0.00818402 0
0.285335 -0.00665578 0
0.203122 -0.00492396 0
0.19844 -0.00408666 0
0.194449 -0.00333569 0
0.372148 -0.0108391 0
0.366974 -0.00862969 0
0.362572 -0.00664368 0
0.285335 -0.00665578 0
0.280886 -0.00527818 0
0.277144 -0.00404442 0
0.194449 -0.00333569 0
0.191073 -0.00265886 0
0.188259 -0.00205508 0
0.203122 -0.00492396 0
0.19844 -0.00408666 0
0.194449 -0.00333569 0
0.104178 -0.00129065 0
0.101559 -0.0010657 0
0.0993292 -0.000867467 0
0 0 0
0 0 0
0 0 0
0.194449 -0.00333569 0
0.191073 -0.00265886 0
0.188259 -0.00205508 0
0.0993292 -0.000867467 0
0.0974491 -0.000686211 0
0.0958763 -0.000527798 0
0 0 0
0 0 0
0 0 0
0.362572 -0.00664368 0
0.358863 -0.00484279 0
0.355807 -0.00319693 0
0.277144 -0.00404442 0
0.274032 -0.00292477 0
0.271503 -0.00190587 0
0.188259 -0.00205508 0
0.18595 -0.00150657 0
0.1841 -0.000999515 0
0.355807 -0.00319693 0
0.353378 -0.0016253 0
0.351562 0 0
0.271503 -0.00190587 0
0.269516 -0.000931243 0
0.268066 0 0
0.1841 -0.000999515 0
0.182667 -0.000519034 0
0.181641 0 0
0.188259 -0.00205508 0
0.18595 -0.00150657 0
0.1841 -0.000999515 0
0.0958763 -0.000527798 0
0.0945924 -0.000383498 0
0.093585 -0.000246702 0
0 0 0
0 0 0
0 0 0
0.1841 -0.000999515 0
0.182667 -0.000519034 0
0.181641 0 0
0.093585 -0.000246702 0
0.0928042 -9.65009e-05 0
0.0922852 0 0
0 0 0
0 0 0
0 0 0
1.6315 -0.479011 0
1.59162 -0.490026 0
1.55043 -0.496169 0
1.57841 -0.430074 0
1.54137 -0.440401 0
1.50329 -0.446449 0
1.51979 -0.385513 0
1.48624 -0.39532 0
1.45168 -0.401443 0
1.55043 -0.496169 0
1.50968 -0.496963 0
1.46858 -0.492817 0
1.50329 -0.446449 0
1.46564 -0.448198 0
1.42776 -0.445631 0
1.45168 -0.401443 0
1.41759 -0.40396 0
1.38327 -0.402691 0
1.51979 -0.385513 0
1.48624 -0.39532 0
1.45168 -0.401443 0
1.46228 -0.346496 0
1.43141 -0.354755 0
1.39972 -0.359952 0
1.40104 -0.308236 0
1.37166 -0.315706 0
1.34161 -0.320544 0
1.45168 -0.401443 0
1.41759 -0.40396 0
1.38327 -0.402691 0
1.39972 -0.359952 0
1.36826 -0.362103 0
1.33656 -0.361111 0
1.34161 -0.320544 0
1.31182 -0.322806 0
1.28189 -0.322383 0
1.46858 -0.492817 0
1.43052 -0.483997 0
1.39327 -0.470639 0
1.42776 -0.445631 0
1.39245 -0.438994 0
1.35788 -0.428736 0
1.38327 -0.402691 0
1.35101 -0.397991 0
1.31938 -0.389962 0
1.39327 -0.470639 0
1.36023 -0.454161 0
1.32886 -0.43446 0
1.35788 -0.428736 0
1.32685 -0.415389 0
1.29735 -0.399262 0
1.31938 -0.389962 0
1.29055 -0.379101 0
1.26302 -0.36562 0
1.38327 -0.402691 0
1.35101 -0.397991 0
1.31938 -0.389962 0
1.33656 -0.361111 0
1.30637 -0.357214 0
1.27663 -0.350499 0
1.28189 -0.322383 0
1.25325 -0.31948 0
1.22509 -0.314159 0
1.31938 -0.389962 0
1.29055 -0.379101 0
1.26302 -0.36562 0
1.27663 -0.350499 0
1.24912 -0.341403 0
1.2227 -0.330062 0
1.22509 -0.314159 0
1.19884 -0.306746 0
1.17363 -0.297345 0
1.40104 -0.308236 0
1.37166 -0.315706 0
1.34161 -0.320544 0
1.33571 -0.273259 0
1.30784 -0.280182 0
1.2794 -0.28477 0
1.26912 -0.239621 0
1.24253 -0.246048 0
1.21538 -0.25044 0
1.34161 -0.320544 0
1.31182 -0.322806 0
1.28189 -0.322383 0
1.2794 -0.28477 0
1.25125 -0.287077 0
1.22301 -0.287036 0
1.21538 -0.25044 0
1.1885 -0.252841 0
1.16153 -0.25319 0
1.26912 -0.239621 0
1.24253 -0.246048 0
1.21538 -0.25044 0
1.20081 -0.207632 0
1.17511 -0.213415 0
1.1489 -0.217433 0
1.12966 -0.176718 0
1.10459 -0.182006 0
1.07902 -0.185778 0
1.21538 -0.25044 0
1.1885 -0.252841 0
1.16153 -0.25319 0
1.1489 -0.217433 0
1.1229 -0.219739 0
1.09681 -0.220278 0
1.07902 -0.185778 0
1.05366 -0.188084 0
1.02822 -0.188872 0
1.28189 -0.322383 0
1.25325 -0.31948 0
1.22509 -0.314159 0
1.22301 -0.287036 0
1.1959 -0.28482 0
1.16924 -0.28047 0
1.16153 -0.25319 0
1.13549 -0.251632 0
1.10986 -0.248197 0
1.22509 -0.314159 0
1.19884 -0.306746 0
1.17363 -0.297345 0
1.16924 -0.28047 0
1.14418 -0.274262 0
1.12006 -0.266279 0
1.10986 -0.248197 0
1.0856 -0.243116 0
1.0622 -0.236458 0
1.16153 -0.25319 0
1.13549 -0.251632 0
1.10986 -0.248197 0
1.09681 -0.220278 0
1.07153 -0.219185 0
1.04662 -0.216467 0
1.02822 -0.188872 0
1.0035 -0.188254 0
0.979138 -0.186233 0
1.10986 -0.248197 0
1.0856 -0.243116 0
1.0622 -0.236458 0
1.04662 -0.216467 0
1.02291 -0.212331 0
0.999989 -0.206812 0
0.979138 -0.186233 0
0.95583 -0.182973 0
0.933281 -0.178503 0
1.32886 -0.43446 0
1.30221 -0.413029 0
1.278 -0.389403 0
1.29735 -0.399262 0
1.27193 -0.381025 0
1.24868 -0.361146 0
1.26302 -0.36562 0
1.23873 -0.350196 0
1.21628 -0.333083 0
1.278 -0.389403 0
1.25777 -0.365287 0
1.24017 -0.340393 0
1.24868 -0.361146 0
1.22889 -0.340294 0
1.21153 -0.318554 0
1.21628 -0.333083 0
1.19674 -0.314833 0
1.17927 -0.29565 0
1.26302 -0.36562 0
1.23873 -0.350196 0
1.21628 -0.333083 0
1.2227 -0.330062 0
1.19897 -0.317001 0
1.17685 -0.302377 0
1.17363 -0.297345 0
1.15074 -0.286353 0
1.12936 -0.273938 0
1.21628 -0.333083 0
1.19674 -0.314833 0
1.17927 -0.29565 0
1.17685 -0.302377 0
1.15729 -0.286711 0
1.13965 -0.270172 0
1.12936 -0.273938 0
1.11022 -0.260505 0
1.09284 -0.246194 0
1.24017 -0.340393 0
1.22613 -0.315682 0
1.21492 -0.290902 0
1.21153 -0.318554 0
1.19729 -0.296493 0
1.18553 -0.274411 0
1.17927 -0.29565 0
1.16444 -0.276083 0
1.15183 -0.256336 0
1.21492 -0.290902 0
1.20612 -0.266957 0
1.19963 -0.243932 0
1.18553 -0.274411 0
1.17591 -0.25267 0
1.16859 -0.231273 0
1.15183 -0.256336 0
1.14123 -0.23678 0
1.13273 -0.217653 0
1.17927 -0.29565 0
1.16444 -0.276083 0
1.15183 -0.256336 0
1.13965 -0.270172 0
1.12445 -0.253196 0
1.1113 -0.235918 0
1.09284 -0.246194 0
1.07762 -0.231351 0
1.06428 -0.216133 0
1.15183 -0.256336 0
1.14123 -0.23678 0
1.13273 -0.217653 0
1.1113 -0.235918 0
1.10007 -0.218655 0
1.0908 -0.201552 0
1.06428 -0.216133 0
1.05264 -0.200806 0
1.04279 -0.185532 0
1.17363 -0.297345 0
1.15074 -0.286353 0
1.12936 -0.273938 0
1.12006 -0.266279 0
1.09792 -0.256873 0
1.07712 -0.246173 0
1.0622 -0.236458 0
1.04049 -0.228512 0
1.02002 -0.219392 0
1.12936 -0.273938 0
1.11022 -0.260505 0
1.09284 -0.246194 0
1.07712 -0.246173 0
1.05825 -0.234526 0
1.04095 -0.222042 0
1.02002 -0.219392 0
1.00126 -0.209387 0
0.983971 -0.198602 0
1.0622 -0.236458 0
1.04049 -0.228512 0
1.02002 -0.219392 0
0.999989 -0.206812 0
0.978569 -0.20016 0
0.958306 -0.192455 0
0.933281 -0.178503 0
0.912054 -0.173026 0
0.891916 -0.166612 0
1.02002 -0.219392 0
1.00126 -0.209387 0
0.983971 -0.198602 0
0.958306 -0.192455 0
0.939582 -0.183947 0
0.92224 -0.174718 0
0.891916 -0.166612 0
0.873163 -0.159462 0
0.855714 -0.151655 0
1.09284 -0.246194 0
1.07762 -0.231351 0
1.06428 -0.216133 0
1.04095 -0.222042 0
1.02557 -0.209045 0
1.01191 -0.19568 0
0.983971 -0.198602 0
0.968429 -0.187312 0
0.954491 -0.175644 0
1.06428 -0.216133 0
1.05264 -0.200806 0
1.04279 -0.185532 0
1.01191 -0.19568 0
0.999816 -0.182189 0
0.989399 -0.168661 0
0.954491 -0.175644 0
0.942042 -0.163792 0
0.931179 -0.151856 0
0.983971 -0.198602 0
0.968429 -0.187312 0
0.954491 -0.175644 0
0.92224 -0.174718 0
0.90648 -0.165001 0
0.892227 -0.154903 0
0.855714 -0.151655 0
0.839712 -0.143381 0
0.825143 -0.134743 0
0.954491 -0.175644 0
0.942042 -0.163792 0
0.931179 -0.151856 0
0.892227 -0.154903 0
0.879361 -0.144601 0
0.867986 -0.134192 0
0.825143 -0.134743 0
0.811896 -0.125892 0
0.800095 -0.116913 0
1.12966 -0.176718 0
1.10459 -0.182006 0
1.07902 -0.185778 0
1.05649 -0.147511 0
1.0319 -0.152247 0
1.00683 -0.155682 0
0.980321 -0.118888 0
0.956131 -0.12313 0
0.931416 -0.126275 0
1.07902 -0.185778 0
1.05366 -0.188084 0
1.02822 -0.188872 0
1.00683 -0.155682 0
0.981939 -0.157858 0
0.95696 -0.158732 0
0.931416 -0.126275 0
0.906838 -0.128363 0
0.882146 -0.129355 0
0.980321 -0.118888 0
0.956131 -0.12313 0
0.931416 -0.126275 0
0.89849 -0.0913705 0
0.874885 -0.0950219 0
0.850691 -0.097777 0
0.803988 -0.0649928 0
0.781564 -0.0679984 0
0.758405 -0.0703143 0
0.931416 -0.126275 0
0.906838 -0.128363 0
0.882146 -0.129355 0
0.850691 -0.097777 0
0.82654 -0.0996679 0
0.802215 -0.100663 0
0.758405 -0.0703143 0
0.73517 -0.0719674 0
0.711656 -0.0729269 0
1.02822 -0.188872 0
1.0035 -0.188254 0
0.979138 -0.186233 0
0.95696 -0.158732 0
0.932599 -0.158403 0
0.908571 -0.15687 0
0.882146 -0.129355 0
0.857984 -0.129334 0
0.834122 -0.1283 0
0.979138 -0.186233 0
0.95583 -0.182973 0
0.933281 -0.178503 0
0.908571 -0.15687 0
0.885468 -0.154278 0
0.863075 -0.150646 0
0.834122 -0.1283 0
0.811081 -0.126369 0
0.788712 -0.12356 0
0.882146 -0.129355 0
0.857984 -0.129334 0
0.834122 -0.1283 0
0.802215 -0.100663 0
0.778315 -0.100834 0
0.754656 -0.100174 0
0.711656 -0.0729269 0
0.688437 -0.0732499 0
0.665376 -0.0729272 0
0.834122 -0.1283 0
0.811081 -0.126369 0
0.788712 -0.12356 0
0.754656 -0.100174 0
0.73171 -0.0987817 0
0.70938 -0.0966679 0
0.665376 -0.0729272 0
0.642905 -0.0720367 0
0.620976 -0.0705841 0
0.803988 -0.0649928 0
0.781564 -0.0679984 0
0.758405 -0.0703143 0
0.685359 -0.040991 0
0.665314 -0.0431769 0
0.64438 -0.0448843 0
0.523589 -0.0198067 0
0.507761 -0.0210954 0
0.490958 -0.0221203 0
0.758405 -0.0703143 0
0.73517 -0.0719674 0
0.711656 -0.0729269 0
0.64438 -0.0448843 0
0.623171 -0.0461325 0
0.601543 -0.0468944 0
0.490958 -0.0221203 0
0.473727 -0.022903 0
0.455981 -0.0234138 0
0.523589 -0.0198067 0
0.507761 -0.0210954 0
0.490958 -0.0221203 0
0.298774 -0.00574385 0
0.289475 -0.00614801 0
0.279414 -0.00645783 0
0 0 0
0 0 0
0 0 0
0.490958 -0.0221203 0
0.473727 -0.022903 0
0.455981 -0.0234138 0
0.279414 -0.00645783 0
0.268983 -0.00670251 0
0.258126 -0.00684679 0
0 0 0
0 0 0
0 0 0
0.711656 -0.0729269 0
0.688437 -0.0732499 0
0.665376 -0.0729272 0
0.601543 -0.0468944 0
0.580028 -0.0472132 0
0.558548 -0.0470773 0