# vtk DataFile Version 3.0
#This file was generated by the deal.II library on 2025/1/3 at 14:27:59
ASCII
DATASET UNSTRUCTURED_GRID

POINTS 34560 double
1.1 1.1 0
1.03125 1.09531 0
0.9625 1.09063 0
1.09375 1.03125 0
1.02539 1.02686 0
0.957031 1.02246 0
1.0875 0.9625 0
1.01953 0.958398 0
0.951563 0.954297 0
0.9625 1.09063 0
0.89375 1.08594 0
0.825 1.08125 0
0.957031 1.02246 0
0.888672 1.01807 0
0.820312 1.01367 0
0.951563 0.954297 0
0.883594 0.950195 0
0.815625 0.946094 0
1.0875 0.9625 0
1.01953 0.958398 0
0.951563 0.954297 0
1.08125 0.89375 0
1.01367 0.889941 0
0.946094 0.886133 0
1.075 0.825 0
1.00781 0.821484 0
0.940625 0.817969 0
0.951563 0.954297 0
0.883594 0.950195 0
0.815625 0.946094 0
0.946094 0.886133 0
0.878516 0.882324 0
0.810938 0.878516 0
0.940625 0.817969 0
0.873438 0.814453 0
0.80625 0.810937 0
0.825 1.08125 0
0.75625 1.07656 0
0.6875 1.07187 0
0.820312 1.01367 0
0.751953 1.00928 0
0.683594 1.00488 0
0.815625 0.946094 0
0.747656 0.941992 0
0.679688 0.937891 0
0.6875 1.07187 0
0.61875 1.06719 0
0.55 1.0625 0
0.683594 1.00488 0
0.615234 1.00049 0
0.546875 0.996094 0
0.679688 0.937891 0
0.611719 0.933789 0
0.54375 0.929688 0
0.815625 0.946094 0
0.747656 0.941992 0
0.679688 0.937891 0
0.810938 0.878516 0
0.743359 0.874707 0
0.675781 0.870898 0
0.80625 0.810937 0
0.739063 0.807422 0
0.671875 0.803906 0
0.679688 0.937891 0
0.611719 0.933789 0
0.54375 0.929688 0
0.675781 0.870898 0
0.608203 0.86709 0
0.540625 0.863281 0
0.671875 0.803906 0
0.604688 0.800391 0
0.5375 0.796875 0
1.075 0.825 0
1.00781 0.821484 0
0.940625 0.817969 0
1.06875 0.75625 0
1.00195 0.753027 0
0.935156 0.749805 0
1.0625 0.6875 0
0.996094 0.68457 0
0.929688 0.681641 0
0.940625 0.817969 0
0.873438 0.814453 0
0.80625 0.810937 0
0.935156 0.749805 0
0.868359 0.746582 0
0.801563 0.743359 0
0.929688 0.681641 0
0.863281 0.678711 0
0.796875 0.675781 0
1.0625 0.6875 0
0.996094 0.68457 0
0.929688 0.681641 0
1.05625 0.61875 0
0.990234 0.616113 0
0.924219 0.613477 0
1.05 0.55 0
0.984375 0.547656 0
0.91875 0.545313 0
0.929688 0.681641 0
0.863281 0.678711 0
0.796875 0.675781 0
0.924219 0.613477 0
0.858203 0.61084 0
0.792188 0.608203 0
0.91875 0.545313 0
0.853125 0.542969 0
0.7875 0.540625 0
0.80625 0.810937 0
0.739063 0.807422 0
0.671875 0.803906 0
0.801563 0.743359 0
0.734766 0.740137 0
0.667969 0.736914 0
0.796875 0.675781 0
0.730469 0.672852 0
0.664062 0.669922 0
0.671875 0.803906 0
0.604688 0.800391 0
0.5375 0.796875 0
0.667969 0.736914 0
0.601172 0.733691 0
0.534375 0.730469 0
0.664062 0.669922 0
0.597656 0.666992 0
0.53125 0.664062 0
0.796875 0.675781 0
0.730469 0.672852 0
0.664062 0.669922 0
0.792188 0.608203 0
0.726172 0.605566 0
0.660156 0.60293 0
0.7875 0.540625 0
0.721875 0.538281 0
0.65625 0.535937 0
0.664062 0.669922 0
0.597656 0.666992 0
0.53125 0.664062 0
0.660156 0.60293 0
0.594141 0.600293 0
0.528125 0.597656 0
0.65625 0.535937 0
0.590625 0.533594 0
0.525 0.53125 0
0.55 1.0625 0
0.48125 1.05781 0
0.4125 1.05313 0
0.546875 0.996094 0
0.478516 0.991699 0
0.410156 0.987305 0
0.54375 0.929688 0
0.475781 0.925586 0
0.407813 0.921484 0
0.4125 1.05313 0
0.34375 1.04844 0
0.275 1.04375 0
0.410156 0.987305 0
0.341797 0.98291 0
0.273438 0.978516 0
0.407813 0.921484 0
0.339844 0.917383 0
0.271875 0.913281 0
0.54375 0.929688 0
0.475781 0.925586 0
0.407813 0.921484 0
0.540625 0.863281 0
0.473047 0.859473 0
0.405469 0.855664 0
0.5375 0.796875 0
0.470313 0.793359 0
0.403125 0.789844 0
0.407813 0.921484 0
0.339844 0.917383 0
0.271875 0.913281 0
0.405469 0.855664 0
0.337891 0.851855 0
0.270313 0.848047 0
0.403125 0.789844 0
0.335938 0.786328 0
0.26875 0.782813 0
0.275 1.04375 0
0.20625 1.03906 0
0.1375 1.03437 0
0.273438 0.978516 0
0.205078 0.974121 0
0.136719 0.969727 0
0.271875 0.913281 0
0.203906 0.90918 0
0.135938 0.905078 0
0.1375 1.03437 0
0.06875 1.02969 0
0 1.025 0
0.136719 0.969727 0
0.0683594 0.965332 0
0 0.960937 0
0.135938 0.905078 0
0.0679688 0.900977 0
0 0.896875 0
0.271875 0.913281 0
0.203906 0.90918 0
0.135938 0.905078 0
0.270313 0.848047 0
0.202734 0.844238 0
0.135156 0.84043 0
0.26875 0.782813 0
0.201563 0.779297 0
0.134375 0.775781 0
0.135938 0.905078 0
0.0679688 0.900977 0
0 0.896875 0
0.135156 0.84043 0
0.0675781 0.836621 0
0 0.832812 0
0.134375 0.775781 0
0.0671875 0.772266 0
0 0.76875 0
0.5375 0.796875 0
0.470313 0.793359 0
0.403125 0.789844 0
0.534375 0.730469 0
0.467578 0.727246 0
0.400781 0.724023 0
0.53125 0.664062 0
0.464844 0.661133 0
0.398438 0.658203 0
0.403125 0.789844 0
0.335938 0.786328 0
0.26875 0.782813 0
0.400781 0.724023 0
0.333984 0.720801 0
0.267188 0.717578 0
0.398438 0.658203 0
0.332031 0.655273 0
0.265625 0.652344 0
0.53125 0.664062 0
0.464844 0.661133 0
0.398438 0.658203 0
0.528125 0.597656 0
0.462109 0.59502 0
0.396094 0.592383 0
0.525 0.53125 0
0.459375 0.528906 0
0.39375 0.526563 0
0.398438 0.658203 0
0.332031 0.655273 0
0.265625 0.652344 0
0.396094 0.592383 0
0.330078 0.589746 0
0.264062 0.587109 0
0.39375 0.526563 0
0.328125 0.524219 0
0.2625 0.521875 0
0.26875 0.782813 0
0.201563 0.779297 0
0.134375 0.775781 0
0.267188 0.717578 0
0.200391 0.714355 0
0.133594 0.711133 0
0.265625 0.652344 0
0.199219 0.649414 0
0.132812 0.646484 0
0.134375 0.775781 0
0.0671875 0.772266 0
0 0.76875 0
0.133594 0.711133 0
0.0667969 0.70791 0
0 0.704687 0
0.132812 0.646484 0
0.0664062 0.643555 0
0 0.640625 0
0.265625 0.652344 0
0.199219 0.649414 0
0.132812 0.646484 0
0.264062 0.587109 0
0.198047 0.584473 0
0.132031 0.581836 0
0.2625 0.521875 0
0.196875 0.519531 0
0.13125 0.517187 0
0.132812 0.646484 0
0.0664062 0.643555 0
0 0.640625 0
0.132031 0.581836 0
0.0660156 0.579199 0
0 0.576562 0
0.13125 0.517187 0
0.065625 0.514844 0
0 0.5125 0
1.05 0.55 0
0.984375 0.547656 0
0.91875 0.545313 0
1.04375 0.48125 0
0.978516 0.479199 0
0.913281 0.477148 0
1.0375 0.4125 0
0.972656 0.410742 0
0.907813 0.408984 0
0.91875 0.545313 0
0.853125 0.542969 0
0.7875 0.540625 0
0.913281 0.477148 0
0.848047 0.475098 0
0.782813 0.473047 0
0.907813 0.408984 0
0.842969 0.407227 0
0.778125 0.405469 0
1.0375 0.4125 0
0.972656 0.410742 0
0.907813 0.408984 0
1.03125 0.34375 0
0.966797 0.342285 0
0.902344 0.34082 0
1.025 0.275 0
0.960937 0.273828 0
0.896875 0.272656 0
0.907813 0.408984 0
0.842969 0.407227 0
0.778125 0.405469 0
0.902344 0.34082 0
0.837891 0.339355 0
0.773438 0.337891 0
0.896875 0.272656 0
0.832812 0.271484 0
0.76875 0.270313 0
0.7875 0.540625 0
0.721875 0.538281 0
0.65625 0.535937 0
0.782813 0.473047 0
0.717578 0.470996 0
0.652344 0.468945 0
0.778125 0.405469 0
0.713281 0.403711 0
0.648438 0.401953 0
0.65625 0.535937 0
0.590625 0.533594 0
0.525 0.53125 0
0.652344 0.468945 0
0.587109 0.466895 0
0.521875 0.464844 0
0.648438 0.401953 0
0.583594 0.400195 0
0.51875 0.398438 0
0.778125 0.405469 0
0.713281 0.403711 0
0.648438 0.401953 0
0.773438 0.337891 0
0.708984 0.336426 0
0.644531 0.334961 0
0.76875 0.270313 0
0.704687 0.269141 0
0.640625 0.267969 0
0.648438 0.401953 0
0.583594 0.400195 0
0.51875 0.398438 0
0.644531 0.334961 0
0.580078 0.333496 0
0.515625 0.332031 0
0.640625 0.267969 0
0.576562 0.266797 0
0.5125 0.265625 0
1.025 0.275 0
0.960937 0.273828 0
0.896875 0.272656 0
1.01875 0.20625 0
0.955078 0.205371 0
0.891406 0.204492 0
1.0125 0.1375 0
0.949219 0.136914 0
0.885937 0.136328 0
0.896875 0.272656 0
0.832812 0.271484 0
0.76875 0.270313 0
0.891406 0.204492 0
0.827734 0.203613 0
0.764062 0.202734 0
0.885937 0.136328 0
0.822656 0.135742 0
0.759375 0.135156 0
1.0125 0.1375 0
0.949219 0.136914 0
0.885937 0.136328 0
1.00625 0.06875 0
0.943359 0.068457 0
0.880469 0.0681641 0
1 0 0
0.9375 0 0
0.875 0 0
0.885937 0.136328 0
0.822656 0.135742 0
0.759375 0.135156 0
0.880469 0.0681641 0
0.817578 0.0678711 0
0.754687 0.0675781 0
0.875 0 0
0.8125 0 0
0.75 0 0
0.76875 0.270313 0
0.704687 0.269141 0
0.640625 0.267969 0
0.764062 0.202734 0
0.700391 0.201855 0
0.636719 0.200977 0
0.759375 0.135156 0
0.696094 0.13457 0
0.632812 0.133984 0
0.640625 0.267969 0
0.576562 0.266797 0
0.5125 0.265625 0
0.636719 0.200977 0
0.573047 0.200098 0
0.509375 0.199219 0
0.632812 0.133984 0
0.569531 0.133398 0
0.50625 0.132812 0
0.759375 0.135156 0
0.696094 0.13457 0
0.632812 0.133984 0
0.754687 0.0675781 0
0.691797 0.0672852 0
0.628906 0.0669922 0
0.75 0 0
0.6875 0 0
0.625 0 0
0.632812 0.133984 0
0.569531 0.133398 0
0.50625 0.132812 0
0.628906 0.0669922 0
0.566016 0.0666992 0
0.503125 0.0664062 0
0.625 0 0
0.5625 0 0
0.5 0 0
0.525 0.53125 0
0.459375 0.528906 0
0.39375 0.526563 0
0.521875 0.464844 0
0.456641 0.462793 0
0.391406 0.460742 0
0.51875 0.398438 0
0.453906 0.39668 0
0.389063 0.394922 0
0.39375 0.526563 0
0.328125 0.524219 0
0.2625 0.521875 0
0.391406 0.460742 0
0.326172 0.458691 0
0.260938 0.456641 0
0.389063 0.394922 0
0.324219 0.393164 0
0.259375 0.391406 0
0.51875 0.398438 0
0.453906 0.39668 0
0.389063 0.394922 0
0.515625 0.332031 0
0.451172 0.330566 0
0.386719 0.329102 0
0.5125 0.265625 0
0.448437 0.264453 0
0.384375 0.263281 0
0.389063 0.394922 0
0.324219 0.393164 0
0.259375 0.391406 0
0.386719 0.329102 0
0.322266 0.327637 0
0.257812 0.326172 0
0.384375 0.263281 0
0.320312 0.262109 0
0.25625 0.260937 0
0.2625 0.521875 0
0.196875 0.519531 0
0.13125 0.517187 0
0.260938 0.456641 0
0.195703 0.45459 0
0.130469 0.452539 0
0.259375 0.391406 0
0.194531 0.389648 0
0.129688 0.387891 0
0.13125 0.517187 0
0.065625 0.514844 0
0 0.5125 0
0.130469 0.452539 0
0.0652344 0.450488 0
0 0.448437 0
0.129688 0.387891 0
0.0648438 0.386133 0
0 0.384375 0
0.259375 0.391406 0
0.194531 0.389648 0
0.129688 0.387891 0
0.257812 0.326172 0
0.193359 0.324707 0
0.128906 0.323242 0
0.25625 0.260937 0
0.192187 0.259766 0
0.128125 0.258594 0
0.129688 0.387891 0
0.0648438 0.386133 0
0 0.384375 0
0.128906 0.323242 0
0.0644531 0.321777 0
0 0.320312 0
0.128125 0.258594 0
0.0640625 0.257422 0
0 0.25625 0
0.5125 0.265625 0
0.448437 0.264453 0
0.384375 0.263281 0
0.509375 0.199219 0
0.445703 0.19834 0
0.382031 0.197461 0
0.50625 0.132812 0
0.442969 0.132227 0
0.379688 0.131641 0
0.384375 0.263281 0
0.320312 0.262109 0
0.25625 0.260937 0
0.382031 0.197461 0
0.318359 0.196582 0
0.254687 0.195703 0
[...]
POINT_DATA 34560
VECTORS v double
1.19053 -0.220931 0
1.182 -0.193818 0
1.17505 -0.170019 0
1.15992 -0.21001 0
1.14913 -0.18586 0
1.14045 -0.163777 0
1.12458 -0.198038 0
1.11226 -0.176016 0
1.10167 -0.155711 0
1.17505 -0.170019 0
1.16922 -0.148136 0
1.16463 -0.128837 0
1.14045 -0.163777 0
1.13252 -0.143568 0
1.12631 -0.125413 0
1.10167 -0.155711 0
1.09216 -0.137062 0
1.08419 -0.120116 0
1.12458 -0.198038 0
1.11226 -0.176016 0
1.10167 -0.155711 0
1.08305 -0.183497 0
1.06926 -0.163839 0
1.05727 -0.145584 0
1.03542 -0.169032 0
1.02075 -0.151485 0
1.00775 -0.13505 0
1.10167 -0.155711 0
1.09216 -0.137062 0
1.08419 -0.120116 0
1.05727 -0.145584 0
1.04641 -0.128681 0
1.03711 -0.113222 0
1.00775 -0.13505 0
0.995949 -0.119739 0
0.985639 -0.105635 0
1.16463 -0.128837 0
1.16034 -0.111429 0
1.15693 -0.096061 0
1.12631 -0.125413 0
1.12023 -0.108955 0
1.11542 -0.0942867 0
1.08419 -0.120116 0
1.07667 -0.104715 0
1.07039 -0.0908542 0
1.15693 -0.096061 0
1.15341 -0.0822947 0
1.15045 -0.0700902 0
1.11542 -0.0942867 0
1.11047 -0.0810461 0
1.10637 -0.069233 0
1.07039 -0.0908542 0
1.06422 -0.0783059 0
1.05897 -0.067026 0
1.08419 -0.120116 0
1.07667 -0.104715 0
1.07039 -0.0908542 0
1.03711 -0.113222 0
1.02842 -0.0990555 0
1.02098 -0.0862311 0
0.985639 -0.105635 0
0.976063 -0.0926485 0
0.967715 -0.080822 0
1.07039 -0.0908542 0
1.06422 -0.0783059 0
1.05897 -0.067026 0
1.02098 -0.0862311 0
1.01385 -0.0745445 0
1.00767 -0.06398 0
0.967715 -0.080822 0
0.959823 -0.0700036 0
0.952895 -0.060179 0
1.03542 -0.169032 0
1.02075 -0.151485 0
1.00775 -0.13505 0
0.982418 -0.153631 0
0.967086 -0.138109 0
0.953355 -0.123481 0
0.924506 -0.138278 0
0.908749 -0.124594 0
0.894485 -0.111624 0
1.00775 -0.13505 0
0.995949 -0.119739 0
0.985639 -0.105635 0
0.953355 -0.123481 0
0.940836 -0.109766 0
0.929747 -0.097068 0
0.894485 -0.111624 0
0.881444 -0.0994148 0
0.86977 -0.0880555 0
0.924506 -0.138278 0
0.908749 -0.124594 0
0.894485 -0.111624 0
0.861543 -0.122042 0
0.845502 -0.110171 0
0.830908 -0.0988782 0
0.793792 -0.106182 0
0.777673 -0.0959777 0
0.762924 -0.0862323 0
0.894485 -0.111624 0
0.881444 -0.0994148 0
0.86977 -0.0880555 0
0.830908 -0.0988782 0
0.817522 -0.0882041 0
0.805464 -0.0782364 0
0.762924 -0.0862323 0
0.749375 -0.076993 0
0.737105 -0.0683381 0
0.985639 -0.105635 0
0.976063 -0.0926485 0
0.967715 -0.080822 0
0.929747 -0.097068 0
0.919484 -0.0853219 0
0.910422 -0.0745768 0
0.86977 -0.0880555 0
0.858994 -0.0775127 0
0.849389 -0.0678317 0
0.967715 -0.080822 0
0.959823 -0.0700036 0
0.952895 -0.060179 0
0.910422 -0.0745768 0
0.901941 -0.0647132 0
0.894426 -0.0557252 0
0.849389 -0.0678317 0
0.840464 -0.0589261 0
0.832504 -0.0507907 0
0.86977 -0.0880555 0
0.858994 -0.0775127 0
0.849389 -0.0678317 0
0.805464 -0.0782364 0
0.794349 -0.0689534 0
0.784384 -0.0604047 0
0.737105 -0.0683381 0
0.725812 -0.0602623 0
0.715642 -0.0528097 0
0.849389 -0.0678317 0
0.840464 -0.0589261 0
0.832504 -0.0507907 0
0.784384 -0.0604047 0
0.775173 -0.0525235 0
0.766926 -0.0453131 0
0.715642 -0.0528097 0
0.706286 -0.0459354 0
0.697884 -0.039642 0
1.15045 -0.0700902 0
1.14726 -0.059092 0
1.14438 -0.049195 0
1.10637 -0.069233 0
1.10209 -0.0585146 0
1.09837 -0.0488225 0
1.05897 -0.067026 0
1.05374 -0.0567561 0
1.04917 -0.0474203 0
1.14438 -0.049195 0
1.14122 -0.0400812 0
1.1382 -0.0316345 0
1.09837 -0.0488225 0
1.09443 -0.0398513 0
1.09084 -0.0315037 0
1.04917 -0.0474203 0
1.04456 -0.0387499 0
1.04043 -0.0306493 0
1.05897 -0.067026 0
1.05374 -0.0567561 0
1.04917 -0.0474203 0
1.00767 -0.06398 0
1.0017 -0.0543107 0
0.996454 -0.0454816 0
0.952895 -0.060179 0
0.946323 -0.0511625 0
0.940511 -0.0429002 0
1.04917 -0.0474203 0
1.04456 -0.0387499 0
1.04043 -0.0306493 0
0.996454 -0.0454816 0
0.991338 -0.0372478 0
0.986763 -0.0295219 0
0.940511 -0.0429002 0
0.934975 -0.035176 0
0.930042 -0.0279074 0
1.1382 -0.0316345 0
1.13497 -0.0235549 0
1.13179 -0.0157289 0
1.09084 -0.0315037 0
1.08714 -0.0234998 0
1.08367 -0.015727 0
1.04043 -0.0306493 0
1.03633 -0.0228592 0
1.03259 -0.015282 0
1.13179 -0.0157289 0
1.12839 -0.00789458 0
1.125 0 0
1.08367 -0.015727 0
1.08009 -0.00793326 0
1.07666 0 0
1.03259 -0.015282 0
1.02885 -0.00768184 0
1.02539 0 0
1.04043 -0.0306493 0
1.03633 -0.0228592 0
1.03259 -0.015282 0
0.986763 -0.0295219 0
0.982375 -0.0220636 0
0.978432 -0.0147891 0
0.930042 -0.0279074 0
0.92542 -0.0208742 0
0.921319 -0.0139958 0
1.03259 -0.015282 0
1.02885 -0.00768184 0
1.02539 0 0
0.978432 -0.0147891 0
0.974625 -0.0074683 0
0.971191 0 0
0.921319 -0.0139958 0
0.917463 -0.00705794 0
0.914062 0 0
0.952895 -0.060179 0
0.946323 -0.0511625 0
0.940511 -0.0429002 0
0.894426 -0.0557252 0
0.887392 -0.047455 0
0.881147 -0.0398577 0
0.832504 -0.0507907 0
0.825126 -0.0432981 0
0.818556 -0.0364059 0
0.940511 -0.0429002 0
0.934975 -0.035176 0
0.930042 -0.0279074 0
0.881147 -0.0398577 0
0.875301 -0.0327394 0
0.870107 -0.0260254 0
0.818556 -0.0364059 0
0.812487 -0.0299441 0
0.80711 -0.0238405 0
0.832504 -0.0507907 0
0.825126 -0.0432981 0
0.818556 -0.0364059 0
0.766926 -0.0453131 0
0.759337 -0.0386668 0
0.752571 -0.0325512 0
0.697884 -0.039642 0
0.690202 -0.0338468 0
0.683347 -0.0285192 0
0.818556 -0.0364059 0
0.812487 -0.0299441 0
0.80711 -0.0238405 0
0.752571 -0.0325512 0
0.746384 -0.0268147 0
0.740917 -0.0213923 0
0.683347 -0.0285192 0
0.677132 -0.0235298 0
0.671655 -0.0188159 0
0.930042 -0.0279074 0
0.92542 -0.0208742 0
0.921319 -0.0139958 0
0.870107 -0.0260254 0
0.865334 -0.0195078 0
0.861147 -0.0131128 0
0.80711 -0.0238405 0
0.802245 -0.0179023 0
0.798019 -0.0120577 0
0.921319 -0.0139958 0
0.917463 -0.00705794 0
0.914062 0 0
0.861147 -0.0131128 0
0.857311 -0.00663524 0
0.854004 0 0
0.798019 -0.0120577 0
0.794224 -0.00611218 0
0.791016 0 0
0.80711 -0.0238405 0
0.802245 -0.0179023 0
0.798019 -0.0120577 0
0.740917 -0.0213923 0
0.736037 -0.0161021 0
0.731839 -0.0108764 0
0.671655 -0.0188159 0
0.666819 -0.0142093 0
0.662699 -0.00964138 0
0.798019 -0.0120577 0
0.794224 -0.00611218 0
0.791016 0 0
0.731839 -0.0108764 0
0.728147 -0.00552797 0
0.725098 0 0
0.662699 -0.00964138 0
0.659135 -0.00493161 0
0.65625 0 0
0.793792 -0.106182 0
0.777673 -0.0959777 0
0.762924 -0.0862323 0
0.721435 -0.0897859 0
0.705314 -0.0811992 0
0.690532 -0.0729843 0
0.644409 -0.0737995 0
0.62843 -0.0667467 0
0.613745 -0.0599891 0
0.762924 -0.0862323 0
0.749375 -0.076993 0
0.737105 -0.0683381 0
0.690532 -0.0729843 0
0.676932 -0.0651817 0
0.664585 -0.0578625 0
0.613745 -0.0599891 0
0.600241 -0.0535654 0
0.587965 -0.0475359 0
0.644409 -0.0737995 0
0.62843 -0.0667467 0
0.613745 -0.0599891 0
0.562391 -0.0574271 0
0.546666 -0.0518873 0
0.532235 -0.0465868 0
0.474031 -0.041725 0
0.458935 -0.0376537 0
0.445105 -0.0337673 0
0.613745 -0.0599891 0
0.600241 -0.0535654 0
0.587965 -0.0475359 0
0.532235 -0.0465868 0
0.518979 -0.0415533 0
0.506947 -0.0368363 0
0.445105 -0.0337673 0
0.432442 -0.0300839 0
0.420978 -0.0266429 0
0.737105 -0.0683381 0
0.725812 -0.0602623 0
0.715642 -0.0528097 0
0.664585 -0.0578625 0
0.653242 -0.0510259 0
0.643011 -0.0447123 0
0.587965 -0.0475359 0
0.57672 -0.0419039 0
0.566575 -0.0367039 0
0.715642 -0.0528097 0
0.706286 -0.0459354 0
0.697884 -0.039642 0
0.643011 -0.0447123 0
0.63364 -0.038888 0
0.625223 -0.0335586 0
0.566575 -0.0367039 0
0.557328 -0.0319124 0
0.549033 -0.0275341 0
0.587965 -0.0475359 0
0.57672 -0.0419039 0
0.566575 -0.0367039 0
0.506947 -0.0368363 0
0.495965 -0.0324373 0
0.48608 -0.0283844 0
0.420978 -0.0266429 0
0.410564 -0.0234424 0
0.401224 -0.0205039 0
0.566575 -0.0367039 0
0.557328 -0.0319124 0
0.549033 -0.0275341 0
0.48608 -0.0283844 0
0.477122 -0.024658 0
0.469114 -0.0212621 0
0.401224 -0.0205039 0
0.392811 -0.0178104 0
0.385325 -0.0153652 0
0.474031 -0.041725 0
0.458935 -0.0376537 0
0.445105 -0.0337673 0
0.377043 -0.0264616 0
0.363247 -0.0238094 0
0.35068 -0.021294 0
0.267897 -0.0133525 0
0.256729 -0.0119994 0
0.246613 -0.010726 0
0.445105 -0.0337673 0
0.432442 -0.0300839 0
0.420978 -0.0266429 0
0.35068 -0.021294 0
0.339222 -0.018923 0
0.328904 -0.0167232 0
0.246613 -0.010726 0
0.23744 -0.0095266 0
0.229224 -0.00842252 0
0.267897 -0.0133525 0
0.256729 -0.0119994 0
0.246613 -0.010726 0
0.143233 -0.00370298 0
0.136576 -0.00330786 0
0.130599 -0.00294589 0
0 0 0
0 0 0
0 0 0
0.246613 -0.010726 0
0.23744 -0.0095266 0
0.229224 -0.00842252 0
0.130599 -0.00294589 0
0.125185 -0.00260347 0
0.120365 -0.00229726 0
0 0 0
0 0 0
0 0 0
0.420978 -0.0266429 0
0.410564 -0.0234424 0
0.401224 -0.0205039 0
0.328904 -0.0167232 0
0.31958 -0.014689 0
0.311259 -0.0128342 0
0.229224 -0.00842252 0
0.221839 -0.00740409 0
0.215274 -0.00648288 0
0.401224 -0.0205039 0
0.392811 -0.0178104 0
0.385325 -0.0153652 0
0.311259 -0.0128342 0
0.303808 -0.0111428 0
0.29721 -0.00961736 0
0.215274 -0.00648288 0
0.209421 -0.00564495 0
0.204251 -0.00489518 0
0.229224 -0.00842252 0
0.221839 -0.00740409 0
0.215274 -0.00648288 0
0.120365 -0.00229726 0
0.116033 -0.00201378 0
0.112191 -0.00176468 0
0 0 0
0 0 0
0 0 0
0.215274 -0.00648288 0
0.209421 -0.00564495 0
0.204251 -0.00489518 0
0.112191 -0.00176468 0
0.108759 -0.00153613 0
0.105721 -0.00133755 0
0 0 0
0 0 0
0 0 0
0.697884 -0.039642 0
0.690202 -0.0338468 0
0.683347 -0.0285192 0
0.625223 -0.0335586 0
0.61757 -0.0286571 0
0.610749 -0.0241607 0
0.549033 -0.0275341 0
0.541535 -0.0235177 0
0.534867 -0.0198452 0
0.683347 -0.0285192 0
0.677132 -0.0235298 0
0.671655 -0.0188159 0
0.610749 -0.0241607 0
0.604608 -0.0199581 0
0.599215 -0.015994 0
0.534867 -0.0198452 0
0.528903 -0.0164262 0
0.523682 -0.0132101 0
0.549033 -0.0275341 0
0.541535 -0.0235177 0
0.534867 -0.0198452 0
0.469114 -0.0212621 0
0.461921 -0.0181544 0
0.455551 -0.0153242 0
0.385325 -0.0153652 0
0.378643 -0.0131347 0
0.372756 -0.0111114 0
0.534867 -0.0198452 0
0.528903 -0.0164262 0
0.523682 -0.0132101 0
0.455551 -0.0153242 0
0.449891 -0.0126983 0
0.444959 -0.0102364 0
0.372756 -0.0111114 0
0.367558 -0.0092409 0
0.363052 -0.00749273 0
0.671655 -0.0188159 0
0.666819 -0.0142093 0
0.662699 -0.00964138 0
0.599215 -0.015994 0
0.594497 -0.0121132 0
0.590517 -0.00824996 0
0.523682 -0.0132101 0
0.519152 -0.0100603 0
0.515364 -0.00691117 0
0.662699 -0.00964138 0
0.659135 -0.00493161 0
0.65625 0 0
0.590517 -0.00824996 0
0.587136 -0.00422835 0
0.584473 0 0
0.515364 -0.00691117 0
0.512199 -0.00359388 0
0.509766 0 0
0.523682 -0.0132101 0
0.519152 -0.0100603 0
0.515364 -0.00691117 0
0.444959 -0.0102364 0
0.440706 -0.00782192 0
0.437179 -0.00540111 0
0.363052 -0.00749273 0
0.359184 -0.00577751 0
0.355997 -0.0040456 0
0.515364 -0.00691117 0
0.512199 -0.00359388 0
0.509766 0 0
0.437179 -0.00540111 0
0.434281 -0.00281378 0
0.432129 0 0
0.355997 -0.0040456 0
0.353417 -0.00216589 0
0.351562 0 0
0.385325 -0.0153652 0
0.378643 -0.0131347 0
0.372756 -0.0111114 0
0.29721 -0.00961736 0
0.291355 -0.00823024 0
0.286219 -0.00697763 0
0.204251 -0.00489518 0
0.199676 -0.00421421 0
0.195668 -0.00360179 0
0.372756 -0.0111114 0
0.367558 -0.0092409 0
0.363052 -0.00749273 0
0.286219 -0.00697763 0
0.281709 -0.00581923 0
0.277819 -0.00473753 0
0.195668 -0.00360179 0
0.192154 -0.00303355 0
0.189127 -0.00250431 0
0.204251 -0.00489518 0
0.199676 -0.00421421 0
0.195668 -0.00360179 0
0.105721 -0.00133755 0
0.103021 -0.00115514 0
0.100643 -0.000994362 0
0 0 0
0 0 0
0 0 0
0.195668 -0.00360179 0
0.192154 -0.00303355 0
0.189127 -0.00250431 0
0.100643 -0.000994362 0
0.0985423 -0.000839164 0
0.0967198 -0.000697486 0
0 0 0
0 0 0
0 0 0
0.363052 -0.00749273 0
0.359184 -0.00577751 0
0.355997 -0.0040456 0
0.277819 -0.00473753 0
0.27449 -0.00366565 0
0.271766 -0.0025756 0
0.189127 -0.00250431 0
0.18654 -0.00197693 0
0.184434 -0.00142539 0
0.355997 -0.0040456 0
0.353417 -0.00216589 0
0.351562 0 0
0.271766 -0.0025756 0
0.269581 -0.00136265 0
0.268066 0 0
0.184434 -0.00142539 0
0.182761 -0.000801643 0
0.181641 0 0
0.189127 -0.00250431 0
0.18654 -0.00197693 0
0.184434 -0.00142539 0
0.0967198 -0.000697486 0
0.0951464 -0.000553693 0
0.0938942 -0.000396267 0
0 0 0
0 0 0
0 0 0
0.184434 -0.00142539 0
0.182761 -0.000801643 0
0.181641 0 0
0.0938942 -0.000396267 0
0.092884 -0.000186944 0
0.0922852 0 0
0 0 0
0 0 0
0 0 0
1.59219 -0.448194 0
1.55572 -0.458835 0
1.51725 -0.464945 0
1.53908 -0.402906 0
1.50522 -0.412548 0
1.46988 -0.418215 0
1.48104 -0.361951 0
1.45052 -0.370799 0
1.41868 -0.376272 0
1.51725 -0.464945 0
1.47915 -0.465727 0
1.44013 -0.46171 0
1.46988 -0.418215 0
1.43486 -0.419725 0
1.39919 -0.417092 0
1.41868 -0.376272 0
1.38721 -0.378329 0
1.35519 -0.376795 0
1.48104 -0.361951 0
1.45052 -0.370799 0
1.41868 -0.376272 0
1.42444 -0.326222 0
1.39638 -0.33329 0
1.36727 -0.337602 0
1.36406 -0.290983 0
1.33726 -0.297133 0
1.30964 -0.30095 0
1.41868 -0.376272 0
1.38721 -0.378329 0
1.35519 -0.376795 0
1.36727 -0.337602 0
1.3383 -0.339085 0
1.30885 -0.337645 0
1.30964 -0.30095 0
1.28223 -0.302424 0
1.25452 -0.30144 0
1.44013 -0.46171 0
1.40423 -0.453025 0
1.36874 -0.439888 0
1.39919 -0.417092 0
1.36611 -0.410458 0
1.33344 -0.400328 0
1.35519 -0.376795 0
1.32519 -0.371939 0
1.29555 -0.363899 0
1.36874 -0.439888 0
1.33756 -0.423665 0
1.30779 -0.404294 0
1.33344 -0.400328 0
1.30438 -0.387167 0
1.2766 -0.371338 0
1.29555 -0.363899 0
1.26871 -0.353117 0
1.24295 -0.339839 0
1.35519 -0.376795 0
1.32519 -0.371939 0
1.29555 -0.363899 0
1.30885 -0.337645 0
1.28088 -0.333453 0
1.25313 -0.326612 0
1.25452 -0.30144 0
1.22805 -0.298143 0
1.20191 -0.292607 0
1.29555 -0.363899 0
1.26871 -0.353117 0
1.24295 -0.339839 0
1.25313 -0.326612 0
1.2276 -0.317508 0
1.20297 -0.306307 0
1.20191 -0.292607 0
1.17765 -0.285109 0
1.15428 -0.275775 0
1.36406 -0.290983 0
1.33726 -0.297133 0
1.30964 -0.30095 0
1.29979 -0.258822 0
1.27431 -0.26433 0
1.24818 -0.267791 0
1.23419 -0.227699 0
1.20979 -0.232678 0
1.18481 -0.23589 0
1.30964 -0.30095 0
1.28223 -0.302424 0
1.25452 -0.30144 0
1.24818 -0.267791 0
1.22232 -0.2692 0
1.19624 -0.26849 0
1.18481 -0.23589 0
1.16008 -0.237337 0
1.13518 -0.23695 0
1.23419 -0.227699 0
1.20979 -0.232678 0
1.18481 -0.23589 0
1.16663 -0.197972 0
1.14294 -0.202326 0
1.11875 -0.205159 0
1.09612 -0.169101 0
1.07287 -0.173016 0
1.04918 -0.175635 0
1.18481 -0.23589 0
1.16008 -0.237337 0
1.13518 -0.23695 0
1.11875 -0.205159 0
1.09479 -0.206494 0
1.0707 -0.206265 0
1.04918 -0.175635 0
1.02575 -0.176985 0
1.00223 -0.177003 0
1.25452 -0.30144 0
1.22805 -0.298143 0
1.20191 -0.292607 0
1.19624 -0.26849 0
1.17126 -0.265779 0
1.14658 -0.261117 0
1.13518 -0.23695 0
1.1112 -0.234834 0
1.08753 -0.23102 0
1.20191 -0.292607 0
1.17765 -0.285109 0
1.15428 -0.275775 0
1.14658 -0.261117 0
1.1235 -0.254739 0
1.1012 -0.246744 0
1.08753 -0.23102 0
1.0652 -0.225707 0
1.04361 -0.218974 0
1.13518 -0.23695 0
1.1112 -0.234834 0
1.08753 -0.23102 0
1.0707 -0.206265 0
1.04742 -0.204576 0
1.02444 -0.201435 0
1.00223 -0.177003 0
0.979449 -0.175775 0
0.956983 -0.173302 0
1.08753 -0.23102 0
1.0652 -0.225707 0
1.04361 -0.218974 0
1.02444 -0.201435 0
1.00265 -0.197017 0
0.981549 -0.191365 0
0.956983 -0.173302 0
0.935571 -0.169724 0
0.914837 -0.165077 0
1.30779 -0.404294 0
1.28287 -0.383296 0
1.26022 -0.360214 0
1.2766 -0.371338 0
1.25298 -0.353477 0
1.23135 -0.334108 0
1.24295 -0.339839 0
1.22045 -0.324717 0
1.19963 -0.308044 0
1.26022 -0.360214 0
1.2416 -0.336763 0
1.22549 -0.31267 0
1.23135 -0.334108 0
1.2132 -0.313872 0
1.19735 -0.292887 0
1.19963 -0.308044 0
1.18171 -0.290351 0
1.16573 -0.271869 0
1.24295 -0.339839 0
1.22045 -0.324717 0
1.19963 -0.308044 0
1.20297 -0.306307 0
1.18105 -0.293502 0
1.16058 -0.279275 0
1.15428 -0.275775 0
1.13322 -0.264968 0
1.11352 -0.252879 0
1.19963 -0.308044 0
1.18171 -0.290351 0
1.16573 -0.271869 0
1.16058 -0.279275 0
1.14267 -0.264121 0
1.12653 -0.248239 0
1.11352 -0.252879 0
1.09604 -0.239886 0
1.08017 -0.226153 0
1.22549 -0.31267 0
1.21297 -0.288915 0
1.20319 -0.26524 0
1.19735 -0.292887 0
1.18462 -0.271706 0
1.17428 -0.250662 0
1.16573 -0.271869 0
1.1524 -0.253133 0
1.14115 -0.234367 0
1.20319 -0.26524 0
1.19576 -0.242544 0
1.19053 -0.220931 0
1.17428 -0.250662 0
1.166 -0.230093 0
1.15992 -0.21001 0
1.14115 -0.234367 0
1.13188 -0.215919 0
1.12458 -0.198038 0
1.16573 -0.271869 0
1.1524 -0.253133 0
1.14115 -0.234367 0
1.12653 -0.248239 0
1.11283 -0.232038 0
1.10106 -0.215675 0
1.08017 -0.226153 0
1.06644 -0.212004 0
1.05446 -0.197617 0
1.14115 -0.234367 0
1.13188 -0.215919 0
1.12458 -0.198038 0
1.10106 -0.215675 0
1.09114 -0.199442 0
1.08305 -0.183497 0
1.05446 -0.197617 0
1.04411 -0.183236 0
1.03542 -0.169032 0
1.15428 -0.275775 0
1.13322 -0.264968 0
1.11352 -0.252879 0
1.1012 -0.246744 0
1.08087 -0.237451 0
1.06174 -0.227008 0
1.04361 -0.218974 0
1.0237 -0.211081 0
1.00491 -0.202155 0
1.11352 -0.252879 0
1.09604 -0.239886 0
1.08017 -0.226153 0
1.06174 -0.227008 0
1.0445 -0.215738 0
1.02871 -0.203768 0
1.00491 -0.202155 0
0.987796 -0.192461 0
0.972025 -0.18212 0
1.04361 -0.218974 0
1.0237 -0.211081 0
1.00491 -0.202155 0
0.981549 -0.191365 0
0.961934 -0.184705 0
0.943363 -0.177129 0
0.914837 -0.165077 0
0.895415 -0.15954 0
0.876981 -0.153194 0
1.00491 -0.202155 0
0.987796 -0.192461 0
0.972025 -0.18212 0
0.943363 -0.177129 0
0.926297 -0.168863 0
0.910485 -0.160002 0
0.876981 -0.153194 0
0.859901 -0.146222 0
0.844005 -0.138709 0
1.08017 -0.226153 0
1.06644 -0.212004 0
1.05446 -0.197617 0
1.02871 -0.203768 0
1.01481 -0.191401 0
1.00249 -0.178796 0
0.972025 -0.18212 0
0.957966 -0.171384 0
0.945383 -0.160393 0
1.05446 -0.197617 0
1.04411 -0.183236 0
1.03542 -0.169032 0
1.00249 -0.178796 0
0.991686 -0.166174 0
0.982418 -0.153631 0
0.945383 -0.160393 0
0.934221 -0.149322 0
0.924506 -0.138278 0
0.972025 -0.18212 0
0.957966 -0.171384 0
0.945383 -0.160393 0
0.910485 -0.160002 0
0.896219 -0.150762 0
0.883332 -0.141258 0
0.844005 -0.138709 0
0.82952 -0.130834 0
0.81634 -0.122705 0
0.945383 -0.160393 0
0.934221 -0.149322 0
0.924506 -0.138278 0
0.883332 -0.141258 0
0.871762 -0.131653 0
0.861543 -0.122042 0
0.81634 -0.122705 0
0.804414 -0.11446 0
0.793792 -0.106182 0
1.09612 -0.169101 0
1.07287 -0.173016 0
1.04918 -0.175635 0
1.02343 -0.141663 0
1.00047 -0.145113 0
0.977137 -0.147457 0
0.947578 -0.114609 0
0.92482 -0.117689 0
0.901675 -0.119839 0
1.04918 -0.175635 0
1.02575 -0.176985 0
1.00223 -0.177003 0
0.977137 -0.147457 0
0.954044 -0.148719 0
0.930897 -0.148846 0
0.901675 -0.119839 0
0.87876 -0.121085 0
0.855795 -0.121381 0
0.947578 -0.114609 0
0.92482 -0.117689 0
0.901675 -0.119839 0
0.866071 -0.0883792 0
0.843664 -0.0910304 0
0.820843 -0.0929223 0
0.772271 -0.0630366 0
0.750777 -0.0652417 0
0.728764 -0.066862 0
0.901675 -0.119839 0
0.87876 -0.121085 0
0.855795 -0.121381 0
0.820843 -0.0929223 0
0.798191 -0.0940773 0
0.775463 -0.0944594 0
0.728764 -0.066862 0
0.706832 -0.067918 0
0.684755 -0.0683768 0
1.00223 -0.177003 0
0.979449 -0.175775 0
0.956983 -0.173302 0
0.930897 -0.148846 0
0.908407 -0.147916 0
0.886228 -0.145929 0
0.855795 -0.121381 0
0.833422 -0.120794 0
0.811355 -0.119322 0
0.956983 -0.173302 0
0.935571 -0.169724 0
0.914837 -0.165077 0
0.886228 -0.145929 0
0.864992 -0.143006 0
0.844406 -0.139172 0
0.811355 -0.119322 0
0.790145 -0.117063 0
0.769569 -0.114039 0
0.855795 -0.121381 0
0.833422 -0.120794 0
0.811355 -0.119322 0
0.775463 -0.0944594 0
0.753246 -0.0941256 0
0.731307 -0.0930697 0
0.684755 -0.0683768 0
0.663089 -0.0682848 0
0.641645 -0.0676338 0
0.811355 -0.119322 0
0.790145 -0.117063 0
0.769569 -0.114039 0
0.731307 -0.0930697 0
0.710139 -0.0913759 0
0.689571 -0.0890575 0
0.641645 -0.0676338 0
0.620874 -0.0664904 0
0.600657 -0.0648632 0
0.772271 -0.0630366 0
0.750777 -0.0652417 0
0.728764 -0.066862 0
0.655496 -0.0397327 0
0.636098 -0.0413549 0
0.616055 -0.0425715 0
0.49839 -0.0191313 0
0.483016 -0.0201136 0
0.466902 -0.0208733 0
0.728764 -0.066862 0
0.706832 -0.067918 0
0.684755 -0.0683768 0
0.616055 -0.0425715 0
0.595934 -0.0433967 0
0.575554 -0.0438046 0
0.466902 -0.0208733 0
0.450562 -0.0214269 0
0.433869 -0.0217485 0
0.49839 -0.0191313 0
0.483016 -0.0201136 0
0.466902 -0.0208733 0
0.282929 -0.00546205 0
0.274085 -0.00577282 0
0.264621 -0.00600699 0
0 0 0
0 0 0
0 0 0
0.466902 -0.0208733 0
0.450562 -0.0214269 0
0.433869 -0.0217485 0
0.264621 -0.00600699 0
0.254934 -0.00618416 0
0.244905 -0.00627746 0
0 0 0
0 0 0
0 0 0
0.684755 -0.0683768 0
0.663089 -0.0682848 0
0.641645 -0.0676338 0