# vtk DataFile Version 3.0
#This file was generated by the deal.II library on 2025/1/3 at 17:24:04
ASCII
DATASET UNSTRUCTURED_GRID

POINTS 34560 double
1.1 1.1 0
1.03125 1.09531 0
0.9625 1.09063 0
1.09375 1.03125 0
1.02539 1.02686 0
0.957031 1.02246 0
1.0875 0.9625 0
1.01953 0.958398 0
0.951563 0.954297 0
0.9625 1.09063 0
0.89375 1.08594 0
0.825 1.08125 0
0.957031 1.02246 0
0.888672 1.01807 0
0.820312 1.01367 0
0.951563 0.954297 0
0.883594 0.950195 0
0.815625 0.946094 0
1.0875 0.9625 0
1.01953 0.958398 0
0.951563 0.954297 0
1.08125 0.89375 0
1.01367 0.889941 0
0.946094 0.886133 0
1.075 0.825 0
1.00781 0.821484 0
0.940625 0.817969 0
0.951563 0.954297 0
0.883594 0.950195 0
0.815625 0.946094 0
0.946094 0.886133 0
0.878516 0.882324 0
0.810938 0.878516 0
0.940625 0.817969 0
0.873438 0.814453 0
0.80625 0.810937 0
0.825 1.08125 0
0.75625 1.07656 0
0.6875 1.07187 0
0.820312 1.01367 0
0.751953 1.00928 0
0.683594 1.00488 0
0.815625 0.946094 0
0.747656 0.941992 0
0.679688 0.937891 0
0.6875 1.07187 0
0.61875 1.06719 0
0.55 1.0625 0
0.683594 1.00488 0
0.615234 1.00049 0
0.546875 0.996094 0
0.679688 0.937891 0
0.611719 0.933789 0
0.54375 0.929688 0
0.815625 0.946094 0
0.747656 0.941992 0
0.679688 0.937891 0
0.810938 0.878516 0
0.743359 0.874707 0
0.675781 0.870898 0
0.80625 0.810937 0
0.739063 0.807422 0
0.671875 0.803906 0
0.679688 0.937891 0
0.611719 0.933789 0
0.54375 0.929688 0
0.675781 0.870898 0
0.608203 0.86709 0
0.540625 0.863281 0
0.671875 0.803906 0
0.604688 0.800391 0
0.5375 0.796875 0
1.075 0.825 0
1.00781 0.821484 0
0.940625 0.817969 0
1.06875 0.75625 0
1.00195 0.753027 0
0.935156 0.749805 0
1.0625 0.6875 0
0.996094 0.68457 0
0.929688 0.681641 0
0.940625 0.817969 0
0.873438 0.814453 0
0.80625 0.810937 0
0.935156 0.749805 0
0.868359 0.746582 0
0.801563 0.743359 0
0.929688 0.681641 0
0.863281 0.678711 0
0.796875 0.675781 0
1.0625 0.6875 0
0.996094 0.68457 0
0.929688 0.681641 0
1.05625 0.61875 0
0.990234 0.616113 0
0.924219 0.613477 0
1.05 0.55 0
0.984375 0.547656 0
0.91875 0.545313 0
0.929688 0.681641 0
0.863281 0.678711 0
0.796875 0.675781 0
0.924219 0.613477 0
0.858203 0.61084 0
0.792188 0.608203 0
0.91875 0.545313 0
0.853125 0.542969 0
0.7875 0.540625 0
0.80625 0.810937 0
0.739063 0.807422 0
0.671875 0.803906 0
0.801563 0.743359 0
0.734766 0.740137 0
0.667969 0.736914 0
0.796875 0.675781 0
0.730469 0.672852 0
0.664062 0.669922 0
0.671875 0.803906 0
0.604688 0.800391 0
0.5375 0.796875 0
0.667969 0.736914 0
0.601172 0.733691 0
0.534375 0.730469 0
0.664062 0.669922 0
0.597656 0.666992 0
0.53125 0.664062 0
0.796875 0.675781 0
0.730469 0.672852 0
0.664062 0.669922 0
0.792188 0.608203 0
0.726172 0.605566 0
0.660156 0.60293 0
0.7875 0.540625 0
0.721875 0.538281 0
0.65625 0.535937 0
0.664062 0.669922 0
0.597656 0.666992 0
0.53125 0.664062 0
0.660156 0.60293 0
0.594141 0.600293 0
0.528125 0.597656 0
0.65625 0.535937 0
0.590625 0.533594 0
0.525 0.53125 0
0.55 1.0625 0
0.48125 1.05781 0
0.4125 1.05313 0
0.546875 0.996094 0
0.478516 0.991699 0
0.410156 0.987305 0
0.54375 0.929688 0
0.475781 0.925586 0
0.407813 0.921484 0
0.4125 1.05313 0
0.34375 1.04844 0
0.275 1.04375 0
0.410156 0.987305 0
0.341797 0.98291 0
0.273438 0.978516 0
0.407813 0.921484 0
0.339844 0.917383 0
0.271875 0.913281 0
0.54375 0.929688 0
0.475781 0.925586 0
0.407813 0.921484 0
0.540625 0.863281 0
0.473047 0.859473 0
0.405469 0.855664 0
0.5375 0.796875 0
0.470313 0.793359 0
0.403125 0.789844 0
0.407813 0.921484 0
0.339844 0.917383 0
0.271875 0.913281 0
0.405469 0.855664 0
0.337891 0.851855 0
0.270313 0.848047 0
0.403125 0.789844 0
0.335938 0.786328 0
0.26875 0.782813 0
0.275 1.04375 0
0.20625 1.03906 0
0.1375 1.03437 0
0.273438 0.978516 0
0.205078 0.974121 0
0.136719 0.969727 0
0.271875 0.913281 0
0.203906 0.90918 0
0.135938 0.905078 0
0.1375 1.03437 0
0.06875 1.02969 0
0 1.025 0
0.136719 0.969727 0
0.0683594 0.965332 0
0 0.960937 0
0.135938 0.905078 0
0.0679688 0.900977 0
0 0.896875 0
0.271875 0.913281 0
0.203906 0.90918 0
0.135938 0.905078 0
0.270313 0.848047 0
0.202734 0.844238 0
0.135156 0.84043 0
0.26875 0.782813 0
0.201563 0.779297 0
0.134375 0.775781 0
0.135938 0.905078 0
0.0679688 0.900977 0
0 0.896875 0
0.135156 0.84043 0
0.0675781 0.836621 0
0 0.832812 0
0.134375 0.775781 0
0.0671875 0.772266 0
0 0.76875 0
0.5375 0.796875 0
0.470313 0.793359 0
0.403125 0.789844 0
0.534375 0.730469 0
0.467578 0.727246 0
0.400781 0.724023 0
0.53125 0.664062 0
0.464844 0.661133 0
0.398438 0.658203 0
0.403125 0.789844 0
0.335938 0.786328 0
0.26875 0.782813 0
0.400781 0.724023 0
0.333984 0.720801 0
0.267188 0.717578 0
0.398438 0.658203 0
0.332031 0.655273 0
0.265625 0.652344 0
0.53125 0.664062 0
0.464844 0.661133 0
0.398438 0.658203 0
0.528125 0.597656 0
0.462109 0.59502 0
0.396094 0.592383 0
0.525 0.53125 0
0.459375 0.528906 0
0.39375 0.526563 0
0.398438 0.658203 0
0.332031 0.655273 0
0.265625 0.652344 0
0.396094 0.592383 0
0.330078 0.589746 0
0.264062 0.587109 0
0.39375 0.526563 0
0.328125 0.524219 0
0.2625 0.521875 0
0.26875 0.782813 0
0.201563 0.779297 0
0.134375 0.775781 0
0.267188 0.717578 0
0.200391 0.714355 0
0.133594 0.711133 0
0.265625 0.652344 0
0.199219 0.649414 0
0.132812 0.646484 0
0.134375 0.775781 0
0.0671875 0.772266 0
0 0.76875 0
0.133594 0.711133 0
0.0667969 0.70791 0
0 0.704687 0
0.132812 0.646484 0
0.0664062 0.643555 0
0 0.640625 0
0.265625 0.652344 0
0.199219 0.649414 0
0.132812 0.646484 0
0.264062 0.587109 0
0.198047 0.584473 0
0.132031 0.581836 0
0.2625 0.521875 0
0.196875 0.519531 0
0.13125 0.517187 0
0.132812 0.646484 0
0.0664062 0.643555 0
0 0.640625 0
0.132031 0.581836 0
0.0660156 0.579199 0
0 0.576562 0
0.13125 0.517187 0
0.065625 0.514844 0
0 0.5125 0
1.05 0.55 0
0.984375 0.547656 0
0.91875 0.545313 0
1.04375 0.48125 0
0.978516 0.479199 0
0.913281 0.477148 0
1.0375 0.4125 0
0.972656 0.410742 0
0.907813 0.408984 0
0.91875 0.545313 0
0.853125 0.542969 0
0.7875 0.540625 0
0.913281 0.477148 0
0.848047 0.475098 0
0.782813 0.473047 0
0.907813 0.408984 0
0.842969 0.407227 0
0.778125 0.405469 0
1.0375 0.4125 0
0.972656 0.410742 0
0.907813 0.408984 0
1.03125 0.34375 0
0.966797 0.342285 0
0.902344 0.34082 0
1.025 0.275 0
0.960937 0.273828 0
0.896875 0.272656 0
0.907813 0.408984 0
0.842969 0.407227 0
0.778125 0.405469 0
0.902344 0.34082 0
0.837891 0.339355 0
0.773438 0.337891 0
0.896875 0.272656 0
0.832812 0.271484 0
0.76875 0.270313 0
0.7875 0.540625 0
0.721875 0.538281 0
0.65625 0.535937 0
0.782813 0.473047 0
0.717578 0.470996 0
0.652344 0.468945 0
0.778125 0.405469 0
0.713281 0.403711 0
0.648438 0.401953 0
0.65625 0.535937 0
0.590625 0.533594 0
0.525 0.53125 0
0.652344 0.468945 0
0.587109 0.466895 0
0.521875 0.464844 0
0.648438 0.401953 0
0.583594 0.400195 0
0.51875 0.398438 0
0.778125 0.405469 0
0.713281 0.403711 0
0.648438 0.401953 0
0.773438 0.337891 0
0.708984 0.336426 0
0.644531 0.334961 0
0.76875 0.270313 0
0.704687 0.269141 0
0.640625 0.267969 0
0.648438 0.401953 0
0.583594 0.400195 0
0.51875 0.398438 0
0.644531 0.334961 0
0.580078 0.333496 0
0.515625 0.332031 0
0.640625 0.267969 0
0.576562 0.266797 0
0.5125 0.265625 0
1.025 0.275 0
0.960937 0.273828 0
0.896875 0.272656 0
1.01875 0.20625 0
0.955078 0.205371 0
0.891406 0.204492 0
1.0125 0.1375 0
0.949219 0.136914 0
0.885937 0.136328 0
0.896875 0.272656 0
0.832812 0.271484 0
0.76875 0.270313 0
0.891406 0.204492 0
0.827734 0.203613 0
0.764062 0.202734 0
0.885937 0.136328 0
0.822656 0.135742 0
0.759375 0.135156 0
1.0125 0.1375 0
0.949219 0.136914 0
0.885937 0.136328 0
1.00625 0.06875 0
0.943359 0.068457 0
0.880469 0.0681641 0
1 0 0
0.9375 0 0
0.875 0 0
0.885937 0.136328 0
0.822656 0.135742 0
0.759375 0.135156 0
0.880469 0.0681641 0
0.817578 0.0678711 0
0.754687 0.0675781 0
0.875 0 0
0.8125 0 0
0.75 0 0
0.76875 0.270313 0
0.704687 0.269141 0
0.640625 0.267969 0
0.764062 0.202734 0
0.700391 0.201855 0
0.636719 0.200977 0
0.759375 0.135156 0
0.696094 0.13457 0
0.632812 0.133984 0
0.640625 0.267969 0
0.576562 0.266797 0
0.5125 0.265625 0
0.636719 0.200977 0
0.573047 0.200098 0
0.509375 0.199219 0
0.632812 0.133984 0
0.569531 0.133398 0
0.50625 0.132812 0
0.759375 0.135156 0
0.696094 0.13457 0
0.632812 0.133984 0
0.754687 0.0675781 0
0.691797 0.0672852 0
0.628906 0.0669922 0
0.75 0 0
0.6875 0 0
0.625 0 0
0.632812 0.133984 0
0.569531 0.133398 0
0.50625 0.132812 0
0.628906 0.0669922 0
0.566016 0.0666992 0
0.503125 0.0664062 0
0.625 0 0
0.5625 0 0
0.5 0 0
0.525 0.53125 0
0.459375 0.528906 0
0.39375 0.526563 0
0.521875 0.464844 0
0.456641 0.462793 0
0.391406 0.460742 0
0.51875 0.398438 0
0.453906 0.39668 0
0.389063 0.394922 0
0.39375 0.526563 0
0.328125 0.524219 0
0.2625 0.521875 0
0.391406 0.460742 0
0.326172 0.458691 0
0.260938 0.456641 0
0.389063 0.394922 0
0.324219 0.393164 0
0.259375 0.391406 0
0.51875 0.398438 0
0.453906 0.39668 0
0.389063 0.394922 0
0.515625 0.332031 0
0.451172 0.330566 0
0.386719 0.329102 0
0.5125 0.265625 0
0.448437 0.264453 0
0.384375 0.263281 0
0.389063 0.394922 0
0.324219 0.393164 0
0.259375 0.391406 0
0.386719 0.329102 0
0.322266 0.327637 0
0.257812 0.326172 0
0.384375 0.263281 0
0.320312 0.262109 0
0.25625 0.260937 0
0.2625 0.521875 0
0.196875 0.519531 0
0.13125 0.517187 0
0.260938 0.456641 0
0.195703 0.45459 0
0.130469 0.452539 0
0.259375 0.391406 0
0.194531 0.389648 0
0.129688 0.387891 0
0.13125 0.517187 0
0.065625 0.514844 0
0 0.5125 0
0.130469 0.452539 0
0.0652344 0.450488 0
0 0.448437 0
0.129688 0.387891 0
0.0648438 0.386133 0
0 0.384375 0
0.259375 0.391406 0
0.194531 0.389648 0
0.129688 0.387891 0
0.257812 0.326172 0
0.193359 0.324707 0
0.128906 0.323242 0
0.25625 0.260937 0
0.192187 0.259766 0
0.128125 0.258594 0
0.129688 0.387891 0
0.0648438 0.386133 0
0 0.384375 0
0.128906 0.323242 0
0.0644531 0.321777 0
0 0.320312 0
0.128125 0.258594 0
0.0640625 0.257422 0
0 0.25625 0
0.5125 0.265625 0
0.448437 0.264453 0
0.384375 0.263281 0
0.509375 0.199219 0
0.445703 0.19834 0
0.382031 0.197461 0
0.50625 0.132812 0
0.442969 0.132227 0
0.379688 0.131641 0
0.384375 0.263281 0
0.320312 0.262109 0
0.25625 0.260937 0
0.382031 0.197461 0
0.318359 0.196582 0
0.254687 0.195703 0
[...]
POINT_DATA 34560
VECTORS v double
1.24717 -0.313314 0
1.2311 -0.282299 0
1.21719 -0.253675 0
1.2143 -0.294366 0
1.19641 -0.26681 0
1.18099 -0.240525 0
1.17645 -0.275075 0
1.15741 -0.250149 0
1.1405 -0.226129 0
1.21719 -0.253675 0
1.20497 -0.226345 0
1.19462 -0.200956 0
1.18099 -0.240525 0
1.167 -0.215444 0
1.15522 -0.191824 0
1.1405 -0.226129 0
1.12524 -0.203129 0
1.112 -0.181231 0
1.17645 -0.275075 0
1.15741 -0.250149 0
1.1405 -0.226129 0
1.13277 -0.253476 0
1.11262 -0.231289 0
1.09462 -0.20976 0
1.08298 -0.232332 0
1.06224 -0.212645 0
1.04352 -0.193366 0
1.1405 -0.226129 0
1.12524 -0.203129 0
1.112 -0.181231 0
1.09462 -0.20976 0
1.07827 -0.188972 0
1.06392 -0.169056 0
1.04352 -0.193366 0
1.02647 -0.17462 0
1.01135 -0.156529 0
1.19462 -0.200956 0
1.1851 -0.177054 0
1.1771 -0.154813 0
1.15522 -0.191824 0
1.14415 -0.16945 0
1.1349 -0.148505 0
1.112 -0.181231 0
1.09972 -0.160439 0
1.0892 -0.140816 0
1.1771 -0.154813 0
1.16946 -0.134017 0
1.16298 -0.114662 0
1.1349 -0.148505 0
1.12598 -0.128782 0
1.1185 -0.110368 0
1.0892 -0.140816 0
1.07923 -0.122293 0
1.07072 -0.104903 0
1.112 -0.181231 0
1.09972 -0.160439 0
1.0892 -0.140816 0
1.06392 -0.169056 0
1.05065 -0.150003 0
1.03913 -0.131924 0
1.01135 -0.156529 0
0.997378 -0.139132 0
0.985122 -0.122529 0
1.0892 -0.140816 0
1.07923 -0.122293 0
1.07072 -0.104903 0
1.03913 -0.131924 0
1.02834 -0.114764 0
1.01901 -0.0985803 0
0.985122 -0.122529 0
0.973722 -0.10671 0
0.96378 -0.0917283 0
1.08298 -0.232332 0
1.06224 -0.212645 0
1.04352 -0.193366 0
1.02793 -0.210624 0
1.00684 -0.193299 0
0.987677 -0.176197 0
0.968316 -0.189268 0
0.947051 -0.174085 0
0.927586 -0.158992 0
1.04352 -0.193366 0
1.02647 -0.17462 0
1.01135 -0.156529 0
0.987677 -0.176197 0
0.970135 -0.159445 0
0.954447 -0.143183 0
0.927586 -0.158992 0
0.909705 -0.144126 0
0.8936 -0.129613 0
0.968316 -0.189268 0
0.947051 -0.174085 0
0.927586 -0.158992 0
0.904089 -0.167158 0
0.882719 -0.154057 0
0.863087 -0.140963 0
0.835458 -0.145623 0
0.814144 -0.134449 0
0.794478 -0.123215 0
0.927586 -0.158992 0
0.909705 -0.144126 0
0.8936 -0.129613 0
0.863087 -0.140963 0
0.844988 -0.127994 0
0.828616 -0.115267 0
0.794478 -0.123215 0
0.776298 -0.112028 0
0.759785 -0.100996 0
1.01135 -0.156529 0
0.997378 -0.139132 0
0.985122 -0.122529 0
0.954447 -0.143183 0
0.939964 -0.127465 0
0.927151 -0.11239 0
0.8936 -0.129613 0
0.878741 -0.115522 0
0.86551 -0.101946 0
0.985122 -0.122529 0
0.973722 -0.10671 0
0.96378 -0.0917283 0
0.927151 -0.11239 0
0.915294 -0.0979725 0
0.904882 -0.0842692 0
0.86551 -0.101946 0
0.853318 -0.088921 0
0.84256 -0.0765014 0
0.8936 -0.129613 0
0.878741 -0.115522 0
0.86551 -0.101946 0
0.828616 -0.115267 0
0.813511 -0.102848 0
0.800006 -0.0908318 0
0.759785 -0.100996 0
0.744552 -0.0901883 0
0.730888 -0.0796882 0
0.86551 -0.101946 0
0.853318 -0.088921 0
0.84256 -0.0765014 0
0.800006 -0.0908318 0
0.787602 -0.0792594 0
0.776625 -0.0681915 0
0.730888 -0.0796882 0
0.718376 -0.069547 0
0.707284 -0.0598214 0
1.16298 -0.114662 0
1.15668 -0.0966154 0
1.15124 -0.0798166 0
1.1185 -0.110368 0
1.11121 -0.0931032 0
1.10501 -0.077001 0
1.07072 -0.104903 0
1.0626 -0.0885626 0
1.05563 -0.073273 0
1.15124 -0.0798166 0
1.1459 -0.0641626 0
1.1412 -0.0495689 0
1.10501 -0.077001 0
1.09897 -0.0619437 0
1.09374 -0.0478877 0
1.05563 -0.073273 0
1.04899 -0.0589529 0
1.04327 -0.0455626 0
1.07072 -0.104903 0
1.0626 -0.0885626 0
1.05563 -0.073273 0
1.01901 -0.0985803 0
1.01026 -0.0833148 0
1.00268 -0.0689864 0
0.96378 -0.0917283 0
0.954531 -0.0775629 0
0.94649 -0.0642306 0
1.05563 -0.073273 0
1.04899 -0.0589529 0
1.04327 -0.0455626 0
1.00268 -0.0689864 0
0.995612 -0.0555369 0
0.9895 -0.0429351 0
0.94649 -0.0642306 0
0.939084 -0.0517005 0
0.932677 -0.039948 0
1.1412 -0.0495689 0
1.13662 -0.0359425 0
1.13251 -0.0231938 0
1.09374 -0.0478877 0
1.08874 -0.0347468 0
1.08436 -0.0224438 0
1.04327 -0.0455626 0
1.0379 -0.0330343 0
1.03326 -0.0213089 0
1.13251 -0.0231938 0
1.12857 -0.0112341 0
1.125 0 0
1.08436 -0.0224438 0
1.08026 -0.0108987 0
1.07666 0 0
1.03326 -0.0213089 0
1.02903 -0.0103183 0
1.02539 0 0
1.04327 -0.0455626 0
1.0379 -0.0330343 0
1.03326 -0.0213089 0
0.9895 -0.0429351 0
0.983893 -0.0311332 0
0.979068 -0.0200875 0
0.932677 -0.039948 0
0.926887 -0.0289451 0
0.92193 -0.0186524 0
1.03326 -0.0213089 0
1.02903 -0.0103183 0
1.02539 0 0
0.979068 -0.0200875 0
0.974797 -0.0097383 0
0.971191 0 0
0.92193 -0.0186524 0
0.917635 -0.00902402 0
0.914062 0 0
0.96378 -0.0917283 0
0.954531 -0.0775629 0
0.94649 -0.0642306 0
0.904882 -0.0842692 0
0.895273 -0.0712795 0
0.886883 -0.059026 0
0.84256 -0.0765014 0
0.832694 -0.0647074 0
0.824057 -0.0535617 0
0.94649 -0.0642306 0
0.939084 -0.0517005 0
0.932677 -0.039948 0
0.886883 -0.059026 0
0.879243 -0.0474964 0
0.872635 -0.0366765 0
0.824057 -0.0535617 0
0.816267 -0.0430714 0
0.809533 -0.0332271 0
0.84256 -0.0765014 0
0.832694 -0.0647074 0
0.824057 -0.0535617 0
0.776625 -0.0681915 0
0.766615 -0.0576582 0
0.757844 -0.0476878 0
0.707284 -0.0598214 0
0.697223 -0.0505528 0
0.688408 -0.0417687 0
0.824057 -0.0535617 0
0.816267 -0.0430714 0
0.809533 -0.0332271 0
0.757844 -0.0476878 0
0.749996 -0.0382986 0
0.743228 -0.0294922 0
0.688408 -0.0417687 0
0.680582 -0.033501 0
0.673853 -0.0257553 0
0.932677 -0.039948 0
0.926887 -0.0289451 0
0.92193 -0.0186524 0
0.872635 -0.0366765 0
0.866742 -0.0265496 0
0.861725 -0.0170861 0
0.809533 -0.0332271 0
0.803597 -0.0240255 0
0.79857 -0.0154421 0
0.92193 -0.0186524 0
0.917635 -0.00902402 0
0.914062 0 0
0.861725 -0.0170861 0
0.857475 -0.00825251 0
0.854004 0 0
0.79857 -0.0154421 0
0.794385 -0.0074526 0
0.791016 0 0
0.809533 -0.0332271 0
0.803597 -0.0240255 0
0.79857 -0.0154421 0
0.743228 -0.0294922 0
0.737323 -0.0212735 0
0.732355 -0.0136276 0
0.673853 -0.0257553 0
0.66804 -0.0185467 0
0.663184 -0.0118634 0
0.79857 -0.0154421 0
0.794385 -0.0074526 0
0.791016 0 0
0.732355 -0.0136276 0
0.728299 -0.00654126 0
0.725098 0 0
0.663184 -0.0118634 0
0.659282 -0.00569988 0
0.65625 0 0
0.835458 -0.145623 0
0.814144 -0.134449 0
0.794478 -0.123215 0
0.762834 -0.123661 0
0.741598 -0.114311 0
0.721953 -0.104873 0
0.686124 -0.102158 0
0.665061 -0.0945331 0
0.645516 -0.0868086 0
0.794478 -0.123215 0
0.776298 -0.112028 0
0.759785 -0.100996 0
0.721953 -0.104873 0
0.703737 -0.0954366 0
0.687149 -0.0860989 0
0.645516 -0.0868086 0
0.627355 -0.0790565 0
0.610777 -0.071364 0
0.686124 -0.102158 0
0.665061 -0.0945331 0
0.645516 -0.0868086 0
0.605069 -0.0802617 0
0.584248 -0.0742815 0
0.564904 -0.0682158 0
0.517708 -0.0590057 0
0.497485 -0.0545995 0
0.478675 -0.0501314 0
0.645516 -0.0868086 0
0.627355 -0.0790565 0
0.610777 -0.071364 0
0.564904 -0.0682158 0
0.546892 -0.0621174 0
0.530432 -0.0560605 0
0.478675 -0.0501314 0
0.461149 -0.0456336 0
0.445125 -0.0411705 0
0.759785 -0.100996 0
0.744552 -0.0901883 0
0.730888 -0.0796882 0
0.687149 -0.0860989 0
0.671849 -0.0769194 0
0.658102 -0.0679725 0
0.610777 -0.071364 0
0.595494 -0.0637785 0
0.581749 -0.0563662 0
0.730888 -0.0796882 0
0.718376 -0.069547 0
0.707284 -0.0598214 0
0.658102 -0.0679725 0
0.645553 -0.0593069 0
0.634429 -0.0509767 0
0.581749 -0.0563662 0
0.569241 -0.0491701 0
0.558166 -0.0422388 0
0.610777 -0.071364 0
0.595494 -0.0637785 0
0.581749 -0.0563662 0
0.530432 -0.0560605 0
0.515265 -0.0500802 0
0.501625 -0.0442305 0
0.445125 -0.0411705 0
0.430378 -0.0367619 0
0.417125 -0.0324529 0
0.581749 -0.0563662 0
0.569241 -0.0491701 0
0.558166 -0.0422388 0
0.501625 -0.0442305 0
0.489253 -0.0385447 0
0.478325 -0.0330626 0
0.417125 -0.0324529 0
0.405142 -0.028264 0
0.394589 -0.0242272 0
0.517708 -0.0590057 0
0.497485 -0.0545995 0
0.478675 -0.0501314 0
0.420543 -0.0382081 0
0.401602 -0.0352733 0
0.384032 -0.0323113 0
0.3063 -0.0195828 0
0.290368 -0.0180511 0
0.275658 -0.0165175 0
0.478675 -0.0501314 0
0.461149 -0.0456336 0
0.445125 -0.0411705 0
0.384032 -0.0323113 0
0.367671 -0.0293371 0
0.352754 -0.0264002 0
0.275658 -0.0165175 0
0.262005 -0.0149719 0
0.249624 -0.0134568 0
0.3063 -0.0195828 0
0.290368 -0.0180511 0
0.275658 -0.0165175 0
0.166422 -0.00563207 0
0.156511 -0.00515476 0
0.147497 -0.00469242 0
0 0 0
0 0 0
0 0 0
0.275658 -0.0165175 0
0.262005 -0.0149719 0
0.249624 -0.0134568 0
0.147497 -0.00469242 0
0.139136 -0.00421765 0
0.131666 -0.00376623 0
0 0 0
0 0 0
0 0 0
0.445125 -0.0411705 0
0.430378 -0.0367619 0
0.417125 -0.0324529 0
0.352754 -0.0264002 0
0.339055 -0.0235086 0
0.326784 -0.0206949 0
0.249624 -0.0134568 0
0.238302 -0.011966 0
0.228217 -0.0105253 0
0.417125 -0.0324529 0
0.405142 -0.028264 0
0.394589 -0.0242272 0
0.326784 -0.0206949 0
0.315731 -0.0179692 0
0.306041 -0.015353 0
0.228217 -0.0105253 0
0.219178 -0.00913243 0
0.211301 -0.00780411 0
0.249624 -0.0134568 0
0.238302 -0.011966 0
0.228217 -0.0105253 0
0.131666 -0.00376623 0
0.124849 -0.00331941 0
0.118865 -0.00289887 0
0 0 0
0 0 0
0 0 0
0.228217 -0.0105253 0
0.219178 -0.00913243 0
0.211301 -0.00780411 0
0.118865 -0.00289887 0
0.113514 -0.00249134 0
0.108914 -0.00211151 0
0 0 0
0 0 0
0 0 0
0.707284 -0.0598214 0
0.697223 -0.0505528 0
0.688408 -0.0417687 0
0.634429 -0.0509767 0
0.624395 -0.043025 0
0.615625 -0.0354807 0
0.558166 -0.0422388 0
0.548238 -0.0356143 0
0.539593 -0.0293238 0
0.688408 -0.0417687 0
0.680582 -0.033501 0
0.673853 -0.0257553 0
0.615625 -0.0354807 0
0.607898 -0.0283812 0
0.601289 -0.0217406 0
0.539593 -0.0293238 0
0.532042 -0.0234088 0
0.525628 -0.0178863 0
0.558166 -0.0422388 0
0.548238 -0.0356143 0
0.539593 -0.0293238 0
0.478325 -0.0330626 0
0.468593 -0.0278184 0
0.460169 -0.0228346 0
0.394589 -0.0242272 0
0.385255 -0.0203648 0
0.377229 -0.0166924 0
0.539593 -0.0293238 0
0.532042 -0.0234088 0
0.525628 -0.0178863 0
0.460169 -0.0228346 0
0.452884 -0.0181485 0
0.446757 -0.0137799 0
0.377229 -0.0166924 0
0.370363 -0.0132384 0
0.364661 -0.010022 0
0.673853 -0.0257553 0
0.66804 -0.0185467 0
0.663184 -0.0118634 0
0.601289 -0.0217406 0
0.595638 -0.0155802 0
0.59096 -0.00989811 0
0.525628 -0.0178863 0
0.520205 -0.012785 0
0.515764 -0.00810603 0
0.663184 -0.0118634 0
0.659282 -0.00569988 0
0.65625 0 0
0.59096 -0.00989811 0
0.587271 -0.00469743 0
0.584473 0 0
0.515764 -0.00810603 0
0.512323 -0.00386291 0
0.509766 0 0
0.525628 -0.0178863 0
0.520205 -0.012785 0
0.515764 -0.00810603 0
0.446757 -0.0137799 0
0.441645 -0.0097594 0
0.437517 -0.00610238 0
0.364661 -0.010022 0
0.359975 -0.00707232 0
0.356257 -0.00440174 0
0.515764 -0.00810603 0
0.512323 -0.00386291 0
0.509766 0 0
0.437517 -0.00610238 0
0.434384 -0.00282962 0
0.432129 0 0
0.356257 -0.00440174 0
0.353494 -0.0020563 0
0.351562 0 0
0.394589 -0.0242272 0
0.385255 -0.0203648 0
0.377229 -0.0166924 0
0.306041 -0.015353 0
0.297527 -0.0128582 0
0.290264 -0.0104896 0
0.211301 -0.00780411 0
0.204426 -0.0065405 0
0.198609 -0.00534374 0
0.377229 -0.0166924 0
0.370363 -0.0132384 0
0.364661 -0.010022 0
0.290264 -0.0104896 0
0.284117 -0.00826305 0
0.279085 -0.006192 0
0.198609 -0.00534374 0
0.193732 -0.00421691 0
0.189794 -0.00317071 0
0.211301 -0.00780411 0
0.204426 -0.0065405 0
0.198609 -0.00534374 0
0.108914 -0.00211151 0
0.104914 -0.00175184 0
0.101574 -0.00141559 0
0 0 0
0 0 0
0 0 0
0.198609 -0.00534374 0
0.193732 -0.00421691 0
0.189794 -0.00317071 0
0.101574 -0.00141559 0
0.098788 -0.00109721 0
0.0965666 -0.000806671 0
0 0 0
0 0 0
0 0 0
0.364661 -0.010022 0
0.359975 -0.00707232 0
0.356257 -0.00440174 0
0.279085 -0.006192 0
0.275029 -0.0042937 0
0.271889 -0.00258222 0
0.189794 -0.00317071 0
0.186687 -0.00220993 0
0.184359 -0.00133134 0
0.356257 -0.00440174 0
0.353494 -0.0020563 0
0.351562 0 0
0.271889 -0.00258222 0
0.269609 -0.00109984 0
0.268066 0 0
0.184359 -0.00133134 0
0.182719 -0.000585036 0
0.181641 0 0
0.189794 -0.00317071 0
0.186687 -0.00220993 0
0.184359 -0.00133134 0
0.0965666 -0.000806671 0
0.0948458 -0.000543465 0
0.0936172 -0.000297762 0
0 0 0
0 0 0
0 0 0
0.184359 -0.00133134 0
0.182719 -0.000585036 0
0.181641 0 0
0.0936172 -0.000297762 0
0.0927841 -6.76757e-05 0
0.0922852 0 0
0 0 0
0 0 0
0 0 0
1.76233 -0.451535 0
1.71984 -0.475674 0
1.67488 -0.493936 0
1.69842 -0.398662 0
1.65949 -0.421341 0
1.61846 -0.438883 0
1.62859 -0.35159 0
1.59406 -0.372898 0
1.55752 -0.389836 0
1.67488 -0.493936 0
1.62989 -0.505809 0
1.58372 -0.511717 0
1.61846 -0.438883 0
1.57733 -0.451206 0
1.53514 -0.458285 0
1.55752 -0.389836 0
1.52077 -0.402364 0
1.483 -0.410324 0
1.62859 -0.35159 0
1.59406 -0.372898 0
1.55752 -0.389836 0
1.56193 -0.311996 0
1.53078 -0.330722 0
1.49784 -0.34585 0
1.49232 -0.273196 0
1.46318 -0.290301 0
1.43241 -0.304304 0
1.55752 -0.389836 0
1.52077 -0.402364 0
1.483 -0.410324 0
1.49784 -0.34585 0
1.46444 -0.357249 0
1.43001 -0.364839 0
1.43241 -0.304304 0
1.40125 -0.315135 0
1.36915 -0.322697 0
1.58372 -0.511717 0
1.5405 -0.511888 0
1.49752 -0.506458 0
1.53514 -0.458285 0
1.49537 -0.460354 0
1.45575 -0.45787 0
1.483 -0.410324 0
1.44702 -0.414011 0
1.4111 -0.413536 0
1.49752 -0.506458 0
1.45886 -0.496986 0
1.42149 -0.483361 0
1.45575 -0.45787 0
1.41967 -0.451421 0
1.38469 -0.441325 0
1.4111 -0.413536 0
1.37783 -0.409416 0
1.34545 -0.401875 0
1.483 -0.410324 0
1.44702 -0.414011 0
1.4111 -0.413536 0
1.43001 -0.364839 0
1.39676 -0.368777 0
1.36336 -0.369187 0
1.36915 -0.322697 0
1.33796 -0.327128 0
1.30664 -0.328515 0
1.4111 -0.413536 0
1.37783 -0.409416 0
1.34545 -0.401875 0
1.36336 -0.369187 0
1.33195 -0.366491 0
1.30118 -0.360816 0
1.30664 -0.328515 0
1.27694 -0.327155 0
1.24781 -0.323151 0
1.49232 -0.273196 0
1.46318 -0.290301 0
1.43241 -0.304304 0
1.41927 -0.238727 0
1.39216 -0.254437 0
1.36352 -0.267417 0
1.34613 -0.205952 0
1.32076 -0.220337 0
1.29389 -0.232367 0
1.43241 -0.304304 0
1.40125 -0.315135 0
1.36915 -0.322697 0
1.36352 -0.267417 0
1.33452 -0.277603 0
1.30463 -0.28494 0
1.29389 -0.232367 0
1.26663 -0.241966 0
1.23846 -0.249089 0
1.34613 -0.205952 0
1.32076 -0.220337 0
1.29389 -0.232367 0
1.27205 -0.175701 0
1.24803 -0.188576 0
1.22257 -0.199422 0
1.1957 -0.146768 0
1.17274 -0.158308 0
1.14833 -0.168122 0
1.29389 -0.232367 0
1.26663 -0.241966 0
1.23846 -0.249089 0
1.22257 -0.199422 0
1.19664 -0.208181 0
1.1698 -0.214816 0
1.14833 -0.168122 0
1.12346 -0.176158 0
1.09768 -0.182378 0
1.36915 -0.322697 0
1.33796 -0.327128 0
1.30664 -0.328515 0
1.30463 -0.28494 0
1.27545 -0.289532 0
1.24608 -0.291441 0
1.23846 -0.249089 0
1.2108 -0.253807 0
1.18289 -0.256168 0
1.30664 -0.328515 0
1.27694 -0.327155 0
1.24781 -0.323151 0
1.24608 -0.291441 0
1.21802 -0.290912 0
1.19041 -0.288018 0
1.18289 -0.256168 0
1.15602 -0.256366 0
1.12949 -0.25446 0
1.23846 -0.249089 0
1.2108 -0.253807 0
1.18289 -0.256168 0
1.1698 -0.214816 0
1.1433 -0.219392 0
1.11649 -0.221934 0
1.09768 -0.182378 0
1.07212 -0.186833 0
1.04623 -0.189537 0
1.18289 -0.256168 0
1.15602 -0.256366 0
1.12949 -0.25446 0
1.11649 -0.221934 0
1.09051 -0.22261 0
1.06479 -0.221448 0
1.04623 -0.189537 0
1.021 -0.190621 0
0.995967 -0.190106 0
1.42149 -0.483361 0
1.38908 -0.46717 0
1.35886 -0.447823 0
1.38469 -0.441325 0
1.35401 -0.42831 0
1.32524 -0.412821 0
1.34545 -0.401875 0
1.31645 -0.391629 0
1.28905 -0.378905 0
1.35886 -0.447823 0
1.33287 -0.427296 0
1.30939 -0.405186 0
1.32524 -0.412821 0
1.30014 -0.395644 0
1.27732 -0.37683 0
1.28905 -0.378905 0
1.2646 -0.364325 0
1.24208 -0.348072 0
1.34545 -0.401875 0
1.31645 -0.391629 0
1.28905 -0.378905 0
1.30118 -0.360816 0
1.27314 -0.352712 0
1.2464 -0.342333 0
1.24781 -0.323151 0
1.22096 -0.316919 0
1.19532 -0.308627 0
1.28905 -0.378905 0
1.2646 -0.364325 0
1.24208 -0.348072 0
1.2464 -0.342333 0
1.22222 -0.330262 0
1.19977 -0.316616 0
1.19532 -0.308627 0
1.1719 -0.298713 0
1.15006 -0.287285 0
1.30939 -0.405186 0
1.28975 -0.382601 0
1.27296 -0.359147 0
1.27732 -0.37683 0
1.25795 -0.357027 0
1.24105 -0.336452 0
1.24208 -0.348072 0
1.22245 -0.330751 0
1.20499 -0.312525 0
1.27296 -0.359147 0
1.25889 -0.336045 0
1.24717 -0.313314 0
1.24105 -0.336452 0
1.2265 -0.315576 0
1.2143 -0.294366 0
1.20499 -0.312525 0
1.18965 -0.293875 0
1.17645 -0.275075 0
1.24208 -0.348072 0
1.22245 -0.330751 0
1.20499 -0.312525 0
1.19977 -0.316616 0
1.17999 -0.301911 0
1.16223 -0.286272 0
1.15006 -0.287285 0
1.13058 -0.274748 0
1.11292 -0.261236 0
1.20499 -0.312525 0
1.18965 -0.293875 0
1.17645 -0.275075 0
1.16223 -0.286272 0
1.14649 -0.2701 0
1.13277 -0.253476 0
1.11292 -0.261236 0
1.09704 -0.247053 0
1.08298 -0.232332 0
1.24781 -0.323151 0
1.22096 -0.316919 0
1.19532 -0.308627 0
1.19041 -0.288018 0
1.1647 -0.283116 0
1.14001 -0.276337 0
1.12949 -0.25446 0
1.10452 -0.25074 0
1.08043 -0.245318 0
1.19532 -0.308627 0
1.1719 -0.298713 0
1.15006 -0.287285 0
1.14001 -0.276337 0
1.11719 -0.268053 0
1.09574 -0.258338 0
1.08043 -0.245318 0
1.05796 -0.238499 0
1.03673 -0.230364 0
1.12949 -0.25446 0
1.10452 -0.25074 0
1.08043 -0.245318 0
1.06479 -0.221448 0
1.04039 -0.218697 0
1.01675 -0.214428 0
0.995967 -0.190106 0
0.972035 -0.188186 0
0.948783 -0.184927 0
1.08043 -0.245318 0
1.05796 -0.238499 0
1.03673 -0.230364 0
1.01675 -0.214428 0
0.994532 -0.208903 0
0.97345 -0.202179 0
0.948783 -0.184927 0
0.926754 -0.180535 0
0.905758 -0.175062 0
1.15006 -0.287285 0
1.13058 -0.274748 0
1.11292 -0.261236 0
1.09574 -0.258338 0
1.07632 -0.247563 0
1.05854 -0.235866 0
1.03673 -0.230364 0
1.01731 -0.221228 0
0.999419 -0.211208 0
1.11292 -0.261236 0
1.09704 -0.247053 0
1.08298 -0.232332 0
1.05854 -0.235866 0
1.04239 -0.223533 0
1.02793 -0.210624 0
0.999419 -0.211208 0
0.983063 -0.200531 0
0.968316 -0.189268 0
1.03673 -0.230364 0
1.01731 -0.221228 0
0.999419 -0.211208 0
0.97345 -0.202179 0
0.953976 -0.194518 0
0.93591 -0.186014 0
0.905758 -0.175062 0
0.886185 -0.168723 0
0.867919 -0.161607 0
0.999419 -0.211208 0
0.983063 -0.200531 0
0.968316 -0.189268 0
0.93591 -0.186014 0
0.919249 -0.176868 0
0.904089 -0.167158 0
0.867919 -0.161607 0
0.850968 -0.153886 0
0.835458 -0.145623 0
1.1957 -0.146768 0
1.17274 -0.158308 0
1.14833 -0.168122 0
1.11778 -0.120305 0
1.09574 -0.13045 0
1.07228 -0.139131 0
1.03714 -0.0946824 0
1.01597 -0.103488 0
0.993329 -0.111081 0
1.14833 -0.168122 0
1.12346 -0.176158 0
1.09768 -0.182378 0
1.07228 -0.139131 0
1.0483 -0.146297 0
1.0234 -0.151918 0
0.993329 -0.111081 0
0.970116 -0.117413 0
0.945937 -0.122457 0
1.03714 -0.0946824 0
1.01597 -0.103488 0
0.993329 -0.111081 0
0.950766 -0.0709518 0
0.930733 -0.0782949 0
0.909142 -0.084666 0
0.851804 -0.0487854 0
0.833522 -0.0545902 0
0.813502 -0.0596702 0
0.993329 -0.111081 0
0.970116 -0.117413 0
0.945937 -0.122457 0
0.909142 -0.084666 0
0.886861 -0.0900215 0
0.863529 -0.094338 0
0.813502 -0.0596702 0
0.792652 -0.0639879 0
0.770613 -0.067515 0
1.09768 -0.182378 0
1.07212 -0.186833 0
1.04623 -0.189537 0
1.0234 -0.151918 0
0.998598 -0.156032 0
0.973416 -0.158652 0
0.945937 -0.122457 0
0.921736 -0.126242 0
0.897099 -0.128775 0
1.04623 -0.189537 0
1.021 -0.190621 0
0.995967 -0.190106 0
0.973416 -0.158652 0
0.948742 -0.159886 0
0.924195 -0.159749 0
0.897099 -0.128775 0
0.872842 -0.130143 0
0.848645 -0.130356 0
0.945937 -0.122457 0
0.921736 -0.126242 0
0.897099 -0.128775 0
0.863529 -0.094338 0
0.840037 -0.097638 0
0.816023 -0.0999213 0
0.770613 -0.067515 0
0.748253 -0.0702682 0
0.725253 -0.0722394 0
0.897099 -0.128775 0
0.872842 -0.130143 0
0.848645 -0.130356 0
0.816023 -0.0999213 0
0.792248 -0.101258 0
0.768447 -0.101652 0
0.725253 -0.0722394 0
0.702339 -0.0734835 0
0.679294 -0.0739965 0
0.851804 -0.0487854 0
0.833522 -0.0545902 0
0.813502 -0.0596702 0
0.728289 -0.029706 0
0.712901 -0.033788 0
0.695623 -0.037387 0
0.559898 -0.0135575 0
0.548707 -0.0158547 0
0.535625 -0.0178987 0
0.813502 -0.0596702 0
0.792652 -0.0639879 0
0.770613 -0.067515 0
0.695623 -0.037387 0
0.677298 -0.0404739 0
0.657624 -0.0430182 0
0.535625 -0.0178987 0
0.521397 -0.0196811 0
0.50578 -0.0211675 0
0.559898 -0.0135575 0
0.548707 -0.0158547 0
0.535625 -0.0178987 0
0.323161 -0.00389291 0
0.317138 -0.00460694 0
0.309688 -0.00523285 0
0 0 0
0 0 0
0 0 0
0.535625 -0.0178987 0
0.521397 -0.0196811 0
0.50578 -0.0211675 0
0.309688 -0.00523285 0
0.301412 -0.00578986 0
0.292051 -0.00623838 0
0 0 0
0 0 0
0 0 0
0.770613 -0.067515 0
0.748253 -0.0702682 0
0.725253 -0.0722394 0
0.657624 -0.0430182 0
0.637412 -0.0450326 0
0.616408 -0.0465017 0
0.50578 -0.0211675 0
0.489467 -0.022376 0
0.472287 -0.0232799 0
0.725253 -0.0722394 0
0.702339 -0.0734835 0
0.679294 -0.0739965 0