# vtk DataFile Version 3.0
#This file was generated by the deal.II library on 2025/1/8 at 10:17:15
ASCII
DATASET UNSTRUCTURED_GRID

POINTS 34560 double
1.1 1.1 0
1.03125 1.09531 0
0.9625 1.09063 0
1.09375 1.03125 0
1.02539 1.02686 0
0.957031 1.02246 0
1.0875 0.9625 0
1.01953 0.958398 0
0.951563 0.954297 0
0.9625 1.09063 0
0.89375 1.08594 0
0.825 1.08125 0
0.957031 1.02246 0
0.888672 1.01807 0
0.820312 1.01367 0
0.951563 0.954297 0
0.883594 0.950195 0
0.815625 0.946094 0
1.0875 0.9625 0
1.01953 0.958398 0
0.951563 0.954297 0
1.08125 0.89375 0
1.01367 0.889941 0
0.946094 0.886133 0
1.075 0.825 0
1.00781 0.821484 0
0.940625 0.817969 0
0.951563 0.954297 0
0.883594 0.950195 0
0.815625 0.946094 0
0.946094 0.886133 0
0.878516 0.882324 0
0.810938 0.878516 0
0.940625 0.817969 0
0.873438 0.814453 0
0.80625 0.810937 0
0.825 1.08125 0
0.75625 1.07656 0
0.6875 1.07187 0
0.820312 1.01367 0
0.751953 1.00928 0
0.683594 1.00488 0
0.815625 0.946094 0
0.747656 0.941992 0
0.679688 0.937891 0
0.6875 1.07187 0
0.61875 1.06719 0
0.55 1.0625 0
0.683594 1.00488 0
0.615234 1.00049 0
0.546875 0.996094 0
0.679688 0.937891 0
0.611719 0.933789 0
0.54375 0.929688 0
0.815625 0.946094 0
0.747656 0.941992 0
0.679688 0.937891 0
0.810938 0.878516 0
0.743359 0.874707 0
0.675781 0.870898 0
0.80625 0.810937 0
0.739063 0.807422 0
0.671875 0.803906 0
0.679688 0.937891 0
0.611719 0.933789 0
0.54375 0.929688 0
0.675781 0.870898 0
0.608203 0.86709 0
0.540625 0.863281 0
0.671875 0.803906 0
0.604688 0.800391 0
0.5375 0.796875 0
1.075 0.825 0
1.00781 0.821484 0
0.940625 0.817969 0
1.06875 0.75625 0
1.00195 0.753027 0
0.935156 0.749805 0
1.0625 0.6875 0
0.996094 0.68457 0
0.929688 0.681641 0
0.940625 0.817969 0
0.873438 0.814453 0
0.80625 0.810937 0
0.935156 0.749805 0
0.868359 0.746582 0
0.801563 0.743359 0
0.929688 0.681641 0
0.863281 0.678711 0
0.796875 0.675781 0
1.0625 0.6875 0
0.996094 0.68457 0
0.929688 0.681641 0
1.05625 0.61875 0
0.990234 0.616113 0
0.924219 0.613477 0
1.05 0.55 0
0.984375 0.547656 0
0.91875 0.545313 0
0.929688 0.681641 0
0.863281 0.678711 0
0.796875 0.675781 0
0.924219 0.613477 0
0.858203 0.61084 0
0.792188 0.608203 0
0.91875 0.545313 0
0.853125 0.542969 0
0.7875 0.540625 0
0.80625 0.810937 0
0.739063 0.807422 0
0.671875 0.803906 0
0.801563 0.743359 0
0.734766 0.740137 0
0.667969 0.736914 0
0.796875 0.675781 0
0.730469 0.672852 0
0.664062 0.669922 0
0.671875 0.803906 0
0.604688 0.800391 0
0.5375 0.796875 0
0.667969 0.736914 0
0.601172 0.733691 0
0.534375 0.730469 0
0.664062 0.669922 0
0.597656 0.666992 0
0.53125 0.664062 0
0.796875 0.675781 0
0.730469 0.672852 0
0.664062 0.669922 0
0.792188 0.608203 0
0.726172 0.605566 0
0.660156 0.60293 0
0.7875 0.540625 0
0.721875 0.538281 0
0.65625 0.535937 0
0.664062 0.669922 0
0.597656 0.666992 0
0.53125 0.664062 0
0.660156 0.60293 0
0.594141 0.600293 0
0.528125 0.597656 0
0.65625 0.535937 0
0.590625 0.533594 0
0.525 0.53125 0
0.55 1.0625 0
0.48125 1.05781 0
0.4125 1.05313 0
0.546875 0.996094 0
0.478516 0.991699 0
0.410156 0.987305 0
0.54375 0.929688 0
0.475781 0.925586 0
0.407813 0.921484 0
0.4125 1.05313 0
0.34375 1.04844 0
0.275 1.04375 0
0.410156 0.987305 0
0.341797 0.98291 0
0.273438 0.978516 0
0.407813 0.921484 0
0.339844 0.917383 0
0.271875 0.913281 0
0.54375 0.929688 0
0.475781 0.925586 0
0.407813 0.921484 0
0.540625 0.863281 0
0.473047 0.859473 0
0.405469 0.855664 0
0.5375 0.796875 0
0.470313 0.793359 0
0.403125 0.789844 0
0.407813 0.921484 0
0.339844 0.917383 0
0.271875 0.913281 0
0.405469 0.855664 0
0.337891 0.851855 0
0.270313 0.848047 0
0.403125 0.789844 0
0.335938 0.786328 0
0.26875 0.782813 0
0.275 1.04375 0
0.20625 1.03906 0
0.1375 1.03437 0
0.273438 0.978516 0
0.205078 0.974121 0
0.136719 0.969727 0
0.271875 0.913281 0
0.203906 0.90918 0
0.135938 0.905078 0
0.1375 1.03437 0
0.06875 1.02969 0
0 1.025 0
0.136719 0.969727 0
0.0683594 0.965332 0
0 0.960937 0
0.135938 0.905078 0
0.0679688 0.900977 0
0 0.896875 0
0.271875 0.913281 0
0.203906 0.90918 0
0.135938 0.905078 0
0.270313 0.848047 0
0.202734 0.844238 0
0.135156 0.84043 0
0.26875 0.782813 0
0.201563 0.779297 0
0.134375 0.775781 0
0.135938 0.905078 0
0.0679688 0.900977 0
0 0.896875 0
0.135156 0.84043 0
0.0675781 0.836621 0
0 0.832812 0
0.134375 0.775781 0
0.0671875 0.772266 0
0 0.76875 0
0.5375 0.796875 0
0.470313 0.793359 0
0.403125 0.789844 0
0.534375 0.730469 0
0.467578 0.727246 0
0.400781 0.724023 0
0.53125 0.664062 0
0.464844 0.661133 0
0.398438 0.658203 0
0.403125 0.789844 0
0.335938 0.786328 0
0.26875 0.782813 0
0.400781 0.724023 0
0.333984 0.720801 0
0.267188 0.717578 0
0.398438 0.658203 0
0.332031 0.655273 0
0.265625 0.652344 0
0.53125 0.664062 0
0.464844 0.661133 0
0.398438 0.658203 0
0.528125 0.597656 0
0.462109 0.59502 0
0.396094 0.592383 0
0.525 0.53125 0
0.459375 0.528906 0
0.39375 0.526563 0
0.398438 0.658203 0
0.332031 0.655273 0
0.265625 0.652344 0
0.396094 0.592383 0
0.330078 0.589746 0
0.264062 0.587109 0
0.39375 0.526563 0
0.328125 0.524219 0
0.2625 0.521875 0
0.26875 0.782813 0
0.201563 0.779297 0
0.134375 0.775781 0
0.267188 0.717578 0
0.200391 0.714355 0
0.133594 0.711133 0
0.265625 0.652344 0
0.199219 0.649414 0
0.132812 0.646484 0
0.134375 0.775781 0
0.0671875 0.772266 0
0 0.76875 0
0.133594 0.711133 0
0.0667969 0.70791 0
0 0.704687 0
0.132812 0.646484 0
0.0664062 0.643555 0
0 0.640625 0
0.265625 0.652344 0
0.199219 0.649414 0
0.132812 0.646484 0
0.264062 0.587109 0
0.198047 0.584473 0
0.132031 0.581836 0
0.2625 0.521875 0
0.196875 0.519531 0
0.13125 0.517187 0
0.132812 0.646484 0
0.0664062 0.643555 0
0 0.640625 0
0.132031 0.581836 0
0.0660156 0.579199 0
0 0.576562 0
0.13125 0.517187 0
0.065625 0.514844 0
0 0.5125 0
1.05 0.55 0
0.984375 0.547656 0
0.91875 0.545313 0
1.04375 0.48125 0
0.978516 0.479199 0
0.913281 0.477148 0
1.0375 0.4125 0
0.972656 0.410742 0
0.907813 0.408984 0
0.91875 0.545313 0
0.853125 0.542969 0
0.7875 0.540625 0
0.913281 0.477148 0
0.848047 0.475098 0
0.782813 0.473047 0
0.907813 0.408984 0
0.842969 0.407227 0
0.778125 0.405469 0
1.0375 0.4125 0
0.972656 0.410742 0
0.907813 0.408984 0
1.03125 0.34375 0
0.966797 0.342285 0
0.902344 0.34082 0
1.025 0.275 0
0.960937 0.273828 0
0.896875 0.272656 0
0.907813 0.408984 0
0.842969 0.407227 0
0.778125 0.405469 0
0.902344 0.34082 0
0.837891 0.339355 0
0.773438 0.337891 0
0.896875 0.272656 0
0.832812 0.271484 0
0.76875 0.270313 0
0.7875 0.540625 0
0.721875 0.538281 0
0.65625 0.535937 0
0.782813 0.473047 0
0.717578 0.470996 0
0.652344 0.468945 0
0.778125 0.405469 0
0.713281 0.403711 0
0.648438 0.401953 0
0.65625 0.535937 0
0.590625 0.533594 0
0.525 0.53125 0
0.652344 0.468945 0
0.587109 0.466895 0
0.521875 0.464844 0
0.648438 0.401953 0
0.583594 0.400195 0
0.51875 0.398438 0
0.778125 0.405469 0
0.713281 0.403711 0
0.648438 0.401953 0
0.773438 0.337891 0
0.708984 0.336426 0
0.644531 0.334961 0
0.76875 0.270313 0
0.704687 0.269141 0
0.640625 0.267969 0
0.648438 0.401953 0
0.583594 0.400195 0
0.51875 0.398438 0
0.644531 0.334961 0
0.580078 0.333496 0
0.515625 0.332031 0
0.640625 0.267969 0
0.576562 0.266797 0
0.5125 0.265625 0
1.025 0.275 0
0.960937 0.273828 0
0.896875 0.272656 0
1.01875 0.20625 0
0.955078 0.205371 0
0.891406 0.204492 0
1.0125 0.1375 0
0.949219 0.136914 0
0.885937 0.136328 0
0.896875 0.272656 0
0.832812 0.271484 0
0.76875 0.270313 0
0.891406 0.204492 0
0.827734 0.203613 0
0.764062 0.202734 0
0.885937 0.136328 0
0.822656 0.135742 0
0.759375 0.135156 0
1.0125 0.1375 0
0.949219 0.136914 0
0.885937 0.136328 0
1.00625 0.06875 0
0.943359 0.068457 0
0.880469 0.0681641 0
1 0 0
0.9375 0 0
0.875 0 0
0.885937 0.136328 0
0.822656 0.135742 0
0.759375 0.135156 0
0.880469 0.0681641 0
0.817578 0.0678711 0
0.754687 0.0675781 0
0.875 0 0
0.8125 0 0
0.75 0 0
0.76875 0.270313 0
0.704687 0.269141 0
0.640625 0.267969 0
0.764062 0.202734 0
0.700391 0.201855 0
0.636719 0.200977 0
0.759375 0.135156 0
0.696094 0.13457 0
0.632812 0.133984 0
0.640625 0.267969 0
0.576562 0.266797 0
0.5125 0.265625 0
0.636719 0.200977 0
0.573047 0.200098 0
0.509375 0.199219 0
0.632812 0.133984 0
0.569531 0.133398 0
0.50625 0.132812 0
0.759375 0.135156 0
0.696094 0.13457 0
0.632812 0.133984 0
0.754687 0.0675781 0
0.691797 0.0672852 0
0.628906 0.0669922 0
0.75 0 0
0.6875 0 0
0.625 0 0
0.632812 0.133984 0
0.569531 0.133398 0
0.50625 0.132812 0
0.628906 0.0669922 0
0.566016 0.0666992 0
0.503125 0.0664062 0
0.625 0 0
0.5625 0 0
0.5 0 0
0.525 0.53125 0
0.459375 0.528906 0
0.39375 0.526563 0
0.521875 0.464844 0
0.456641 0.462793 0
0.391406 0.460742 0
0.51875 0.398438 0
0.453906 0.39668 0
0.389063 0.394922 0
0.39375 0.526563 0
0.328125 0.524219 0
0.2625 0.521875 0
0.391406 0.460742 0
0.326172 0.458691 0
0.260938 0.456641 0
0.389063 0.394922 0
0.324219 0.393164 0
0.259375 0.391406 0
0.51875 0.398438 0
0.453906 0.39668 0
0.389063 0.394922 0
0.515625 0.332031 0
0.451172 0.330566 0
0.386719 0.329102 0
0.5125 0.265625 0
0.448437 0.264453 0
0.384375 0.263281 0
0.389063 0.394922 0
0.324219 0.393164 0
0.259375 0.391406 0
0.386719 0.329102 0
0.322266 0.327637 0
0.257812 0.326172 0
0.384375 0.263281 0
0.320312 0.262109 0
0.25625 0.260937 0
0.2625 0.521875 0
0.196875 0.519531 0
0.13125 0.517187 0
0.260938 0.456641 0
0.195703 0.45459 0
0.130469 0.452539 0
0.259375 0.391406 0
0.194531 0.389648 0
0.129688 0.387891 0
0.13125 0.517187 0
0.065625 0.514844 0
0 0.5125 0
0.130469 0.452539 0
0.0652344 0.450488 0
0 0.448437 0
0.129688 0.387891 0
0.0648438 0.386133 0
0 0.384375 0
0.259375 0.391406 0
0.194531 0.389648 0
0.129688 0.387891 0
0.257812 0.326172 0
0.193359 0.324707 0
0.128906 0.323242 0
0.25625 0.260937 0
0.192187 0.259766 0
0.128125 0.258594 0
0.129688 0.387891 0
0.0648438 0.386133 0
0 0.384375 0
0.128906 0.323242 0
0.0644531 0.321777 0
0 0.320312 0
0.128125 0.258594 0
0.0640625 0.257422 0
0 0.25625 0
0.5125 0.265625 0
0.448437 0.264453 0
0.384375 0.263281 0
0.509375 0.199219 0
0.445703 0.19834 0
0.382031 0.197461 0
0.50625 0.132812 0
0.442969 0.132227 0
0.379688 0.131641 0
0.384375 0.263281 0
0.320312 0.262109 0
0.25625 0.260937 0
0.382031 0.197461 0
0.318359 0.196582 0
0.254687 0.195703 0
[...]
POINT_DATA 34560
VECTORS v double
1.23515 -0.310717 0
1.22111 -0.279941 0
1.20903 -0.251731 0
1.20652 -0.293408 0
1.19009 -0.265785 0
1.17592 -0.239847 0
1.17203 -0.274831 0
1.1539 -0.249825 0
1.13785 -0.226109 0
1.20903 -0.251731 0
1.19837 -0.225278 0
1.18938 -0.200777 0
1.17592 -0.239847 0
1.16309 -0.215375 0
1.15213 -0.192523 0
1.13785 -0.226109 0
1.12328 -0.20362 0
1.11058 -0.182451 0
1.17203 -0.274831 0
1.1539 -0.249825 0
1.13785 -0.226109 0
1.13134 -0.254223 0
1.11177 -0.231848 0
1.09427 -0.210474 0
1.08472 -0.23326 0
1.06415 -0.213329 0
1.04554 -0.194153 0
1.13785 -0.226109 0
1.12328 -0.20362 0
1.11058 -0.182451 0
1.09427 -0.210474 0
1.0783 -0.190075 0
1.06419 -0.170749 0
1.04554 -0.194153 0
1.02851 -0.175742 0
1.0133 -0.158194 0
1.18938 -0.200777 0
1.18105 -0.177964 0
1.17396 -0.156764 0
1.15213 -0.192523 0
1.14194 -0.171062 0
1.13318 -0.151023 0
1.11058 -0.182451 0
1.09882 -0.162467 0
1.08855 -0.143694 0
1.17396 -0.156764 0
1.1672 -0.136988 0
1.16129 -0.118514 0
1.13318 -0.151023 0
1.1249 -0.132198 0
1.11767 -0.114548 0
1.08855 -0.143694 0
1.07897 -0.12598 0
1.07053 -0.109297 0
1.11058 -0.182451 0
1.09882 -0.162467 0
1.08855 -0.143694 0
1.06419 -0.170749 0
1.05116 -0.152393 0
1.03967 -0.135055 0
1.0133 -0.158194 0
0.999278 -0.141447 0
0.986797 -0.12555 0
1.08855 -0.143694 0
1.07897 -0.12598 0
1.07053 -0.109297 0
1.03967 -0.135055 0
1.02902 -0.118611 0
1.01959 -0.103057 0
0.986797 -0.12555 0
0.975281 -0.110414 0
0.965045 -0.0960413 0
1.08472 -0.23326 0
1.06415 -0.213329 0
1.04554 -0.194153 0
1.0326 -0.211428 0
1.0113 -0.193839 0
0.991888 -0.176816 0
0.975402 -0.189404 0
0.953624 -0.173993 0
0.933629 -0.159 0
1.04554 -0.194153 0
1.02851 -0.175742 0
1.0133 -0.158194 0
0.991888 -0.176816 0
0.974051 -0.160377 0
0.957989 -0.144631 0
0.933629 -0.159 0
0.915198 -0.14446 0
0.898487 -0.130472 0
0.975402 -0.189404 0
0.953624 -0.173993 0
0.933629 -0.159 0
0.913201 -0.166693 0
0.891102 -0.153379 0
0.870728 -0.140381 0
0.846107 -0.144095 0
0.823893 -0.132757 0
0.803324 -0.12165 0
0.933629 -0.159 0
0.915198 -0.14446 0
0.898487 -0.130472 0
0.870728 -0.140381 0
0.851887 -0.12773 0
0.834726 -0.115518 0
0.803324 -0.12165 0
0.784262 -0.110809 0
0.766832 -0.100315 0
1.0133 -0.158194 0
0.999278 -0.141447 0
0.986797 -0.12555 0
0.957989 -0.144631 0
0.943178 -0.129536 0
0.929916 -0.115147 0
0.898487 -0.130472 0
0.88308 -0.117015 0
0.869212 -0.10414 0
0.986797 -0.12555 0
0.975281 -0.110414 0
0.965045 -0.0960413 0
0.929916 -0.115147 0
0.917717 -0.101396 0
0.906838 -0.0882945 0
0.869212 -0.10414 0
0.856486 -0.0918008 0
0.845109 -0.0800089 0
0.898487 -0.130472 0
0.88308 -0.117015 0
0.869212 -0.10414 0
0.834726 -0.115518 0
0.818897 -0.103729 0
0.804599 -0.0924176 0
0.766832 -0.100315 0
0.750751 -0.0901621 0
0.736185 -0.080397 0
0.869212 -0.10414 0
0.856486 -0.0918008 0
0.845109 -0.0800089 0
0.804599 -0.0924176 0
0.791499 -0.0815459 0
0.779771 -0.0711301 0
0.736185 -0.080397 0
0.722861 -0.0709939 0
0.710918 -0.0619678 0
1.16129 -0.118514 0
1.15558 -0.101171 0
1.15045 -0.0848303 0
1.11767 -0.114548 0
1.1108 -0.0978983 0
1.10468 -0.0821654 0
1.07053 -0.109297 0
1.06264 -0.0935033 0
1.05564 -0.0785331 0
1.15045 -0.0848303 0
1.14548 -0.0693348 0
1.14091 -0.0545583 0
1.10468 -0.0821654 0
1.09889 -0.0672029 0
1.09366 -0.0529086 0
1.05564 -0.0785331 0
1.04912 -0.0642605 0
1.04332 -0.0506007 0
1.07053 -0.109297 0
1.06264 -0.0935033 0
1.05564 -0.0785331 0
1.01959 -0.103057 0
1.01087 -0.0882727 0
1.00314 -0.0742146 0
0.965045 -0.0960413 0
0.955643 -0.0823391 0
0.94731 -0.0692727 0
1.05564 -0.0785331 0
1.04912 -0.0642605 0
1.04332 -0.0506007 0
1.00314 -0.0742146 0
0.996036 -0.0607742 0
0.98976 -0.0478844 0
0.94731 -0.0692727 0
0.939737 -0.0567541 0
0.93308 -0.0447274 0
1.14091 -0.0545583 0
1.13651 -0.0403584 0
1.13243 -0.0266125 0
1.09366 -0.0529086 0
1.08877 -0.0391558 0
1.08434 -0.0258309 0
1.04332 -0.0506007 0
1.03799 -0.0374404 0
1.03327 -0.0246848 0
1.13243 -0.0266125 0
1.12857 -0.0131866 0
1.125 0 0
1.08434 -0.0258309 0
1.08028 -0.0128212 0
1.07666 0 0
1.03327 -0.0246848 0
1.02905 -0.0122289 0
1.02539 0 0
1.04332 -0.0506007 0
1.03799 -0.0374404 0
1.03327 -0.0246848 0
0.98976 -0.0478844 0
0.984093 -0.0354463 0
0.979147 -0.0233801 0
0.93308 -0.0447274 0
0.92715 -0.0331093 0
0.922041 -0.0218327 0
1.03327 -0.0246848 0
1.02905 -0.0122289 0
1.02539 0 0
0.979147 -0.0233801 0
0.974829 -0.0115948 0
0.971191 0 0
0.922041 -0.0218327 0
0.917664 -0.0108174 0
0.914062 0 0
0.965045 -0.0960413 0
0.955643 -0.0823391 0
0.94731 -0.0692727 0
0.906838 -0.0882945 0
0.896902 -0.0757666 0
0.888099 -0.0637897 0
0.845109 -0.0800089 0
0.834762 -0.0687075 0
0.825602 -0.0578794 0
0.94731 -0.0692727 0
0.939737 -0.0567541 0
0.93308 -0.0447274 0
0.888099 -0.0637897 0
0.880163 -0.05229 0
0.873222 -0.0412243 0
0.825602 -0.0578794 0
0.817398 -0.0474654 0
0.810256 -0.0374306 0
0.845109 -0.0800089 0
0.834762 -0.0687075 0
0.825602 -0.0578794 0
0.779771 -0.0711301 0
0.769144 -0.0611242 0
0.759745 -0.0515183 0
0.710918 -0.0619678 0
0.700131 -0.0532826 0
0.690604 -0.0449313 0
0.825602 -0.0578794 0
0.817398 -0.0474654 0
0.810256 -0.0374306 0
0.759745 -0.0515183 0
0.751375 -0.0422629 0
0.744122 -0.0333328 0
0.690604 -0.0449313 0
0.682163 -0.0368744 0
0.674881 -0.0290921 0
0.93308 -0.0447274 0
0.92715 -0.0331093 0
0.922041 -0.0218327 0
0.873222 -0.0412243 0
0.867108 -0.0305213 0
0.861901 -0.0201268 0
0.810256 -0.0374306 0
0.804026 -0.0277163 0
0.798776 -0.0182781 0
0.922041 -0.0218327 0
0.917664 -0.0108174 0
0.914062 0 0
0.861901 -0.0201268 0
0.85752 -0.00997218 0
0.854004 0 0
0.798776 -0.0182781 0
0.794429 -0.00905863 0
0.791016 0 0
0.810256 -0.0374306 0
0.804026 -0.0277163 0
0.798776 -0.0182781 0
0.744122 -0.0333328 0
0.737852 -0.0246786 0
0.73262 -0.0162679 0
0.674881 -0.0290921 0
0.668637 -0.0215452 0
0.663479 -0.014208 0
0.798776 -0.0182781 0
0.794429 -0.00905863 0
0.791016 0 0
0.73262 -0.0162679 0
0.728359 -0.00805122 0
0.725098 0 0
0.663479 -0.014208 0
0.659343 -0.00704473 0
0.65625 0 0
0.846107 -0.144095 0
0.823893 -0.132757 0
0.803324 -0.12165 0
0.774105 -0.121161 0
0.751918 -0.111716 0
0.73133 -0.102448 0
0.6967 -0.0985328 0
0.674784 -0.0908965 0
0.654405 -0.0833943 0
0.803324 -0.12165 0
0.784262 -0.110809 0
0.766832 -0.100315 0
0.73133 -0.102448 0
0.712213 -0.0933847 0
0.69469 -0.0845976 0
0.654405 -0.0833943 0
0.635466 -0.0760498 0
0.618078 -0.0689245 0
0.6967 -0.0985328 0
0.674784 -0.0908965 0
0.654405 -0.0833943 0
0.612967 -0.0759922 0
0.591625 -0.0700923 0
0.571784 -0.064301 0
0.520901 -0.0544111 0
0.500739 -0.0501685 0
0.482 -0.0460113 0
0.654405 -0.0833943 0
0.635466 -0.0760498 0
0.618078 -0.0689245 0
0.571784 -0.064301 0
0.553337 -0.0586322 0
0.536398 -0.0531366 0
0.482 -0.0460113 0
0.464591 -0.0419443 0
0.448616 -0.0380092 0
0.766832 -0.100315 0
0.750751 -0.0901621 0
0.736185 -0.080397 0
0.69469 -0.0845976 0
0.678523 -0.0760835 0
0.663855 -0.0678834 0
0.618078 -0.0689245 0
0.60204 -0.0620152 0
0.587478 -0.0553574 0
0.736185 -0.080397 0
0.722861 -0.0709939 0
0.710918 -0.0619678 0
0.663855 -0.0678834 0
0.650457 -0.0599759 0
0.638448 -0.0523755 0
0.587478 -0.0553574 0
0.574198 -0.0489331 0
0.562299 -0.0427541 0
0.618078 -0.0689245 0
0.60204 -0.0620152 0
0.587478 -0.0553574 0
0.536398 -0.0531366 0
0.520787 -0.0478092 0
0.506616 -0.042679 0
0.448616 -0.0380092 0
0.433913 -0.0341977 0
0.42058 -0.0305338 0
0.587478 -0.0553574 0
0.574198 -0.0489331 0
0.562299 -0.0427541 0
0.506616 -0.042679 0
0.493714 -0.0377292 0
0.48217 -0.0329693 0
0.42058 -0.0305338 0
0.408463 -0.0270012 0
0.397638 -0.0236079 0
0.520901 -0.0544111 0
0.500739 -0.0501685 0
0.482 -0.0460113 0
0.417593 -0.0342564 0
0.399545 -0.031544 0
0.382822 -0.0288971 0
0.298999 -0.0170642 0
0.284616 -0.0157003 0
0.271325 -0.014379 0
0.482 -0.0460113 0
0.464591 -0.0419443 0
0.448616 -0.0380092 0
0.382822 -0.0288971 0
0.367303 -0.0263126 0
0.353094 -0.0238221 0
0.271325 -0.014379 0
0.259019 -0.0130859 0
0.247784 -0.0118468 0
0.298999 -0.0170642 0
0.284616 -0.0157003 0
0.271325 -0.014379 0
0.160685 -0.00476393 0
0.152133 -0.00436781 0
0.144293 -0.00399435 0
0 0 0
0 0 0
0 0 0
0.271325 -0.014379 0
0.259019 -0.0130859 0
0.247784 -0.0118468 0
0.144293 -0.00399435 0
0.137026 -0.003622 0
0.13044 -0.00327429 0
0 0 0
0 0 0
0 0 0
0.448616 -0.0380092 0
0.433913 -0.0341977 0
0.42058 -0.0305338 0
0.353094 -0.0238221 0
0.340039 -0.0214145 0
0.328225 -0.0191086 0
0.247784 -0.0118468 0
0.237484 -0.0106485 0
0.228188 -0.00950693 0
0.42058 -0.0305338 0
0.408463 -0.0270012 0
0.397638 -0.0236079 0
0.328225 -0.0191086 0
0.317508 -0.0168887 0
0.307958 -0.0147623 0
0.228188 -0.00950693 0
0.21977 -0.00840774 0
0.212287 -0.0073597 0
0.247784 -0.0118468 0
0.237484 -0.0106485 0
0.228188 -0.00950693 0
0.13044 -0.00327429 0
0.124394 -0.00293367 0
0.118973 -0.00261671 0
0 0 0
0 0 0
0 0 0
0.228188 -0.00950693 0
0.21977 -0.00840774 0
0.212287 -0.0073597 0
0.118973 -0.00261671 0
0.114056 -0.00230733 0
0.109711 -0.00201842 0
0 0 0
0 0 0
0 0 0
0.710918 -0.0619678 0
0.700131 -0.0532826 0
0.690604 -0.0449313 0
0.638448 -0.0523755 0
0.627632 -0.0450512 0
0.618098 -0.0379994 0
0.562299 -0.0427541 0
0.551613 -0.0367942 0
0.542214 -0.0310503 0
0.690604 -0.0449313 0
0.682163 -0.0368744 0
0.674881 -0.0290921 0
0.618098 -0.0379994 0
0.609691 -0.031186 0
0.602474 -0.0245976 0
0.542214 -0.0310503 0
0.533966 -0.0254939 0
0.526919 -0.0201146 0
0.562299 -0.0427541 0
0.551613 -0.0367942 0
0.542214 -0.0310503 0
0.48217 -0.0329693 0
0.47183 -0.0283749 0
0.462762 -0.0239437 0
0.397638 -0.0236079 0
0.387969 -0.0203321 0
0.379515 -0.0171708 0
0.542214 -0.0310503 0
0.533966 -0.0254939 0
0.526919 -0.0201146 0
0.462762 -0.0239437 0
0.45484 -0.0196498 0
0.448112 -0.0154855 0
0.379515 -0.0171708 0
0.372163 -0.0141008 0
0.365957 -0.0111157 0
0.674881 -0.0290921 0
0.668637 -0.0215452 0
0.663479 -0.014208 0
0.602474 -0.0245976 0
0.596334 -0.018203 0
0.591311 -0.0119879 0
0.526919 -0.0201146 0
0.520968 -0.0148895 0
0.516147 -0.009811 0
0.663479 -0.014208 0
0.659343 -0.00704473 0
0.65625 0 0
0.591311 -0.0119879 0
0.58735 -0.00592083 0
0.584473 0 0
0.516147 -0.009811 0
0.512408 -0.00486563 0
0.509766 0 0
0.526919 -0.0201146 0
0.520968 -0.0148895 0
0.516147 -0.009811 0
0.448112 -0.0154855 0
0.442467 -0.0114325 0
0.437939 -0.00749891 0
0.365957 -0.0111157 0
0.360788 -0.00820149 0
0.356683 -0.00536515 0
0.516147 -0.009811 0
0.512408 -0.00486563 0
0.509766 0 0
0.437939 -0.00749891 0
0.434486 -0.0036803 0
0.432129 0 0
0.356683 -0.00536515 0
0.3536 -0.00263466 0
0.351562 0 0
0.397638 -0.0236079 0
0.387969 -0.0203321 0
0.379515 -0.0171708 0
0.307958 -0.0147623 0
0.299445 -0.01271 0
0.292028 -0.0107295 0
0.212287 -0.0073597 0
0.205629 -0.00634788 0
0.199846 -0.0053722 0
0.379515 -0.0171708 0
0.372163 -0.0141008 0
0.365957 -0.0111157 0
0.292028 -0.0107295 0
0.285602 -0.00879999 0
0.280217 -0.00691772 0
0.199846 -0.0053722 0
0.194849 -0.00441696 0
0.190691 -0.00348387 0
0.212287 -0.0073597 0
0.205629 -0.00634788 0
0.199846 -0.0053722 0
0.109711 -0.00201842 0
0.105836 -0.00173714 0
0.102493 -0.00146862 0
0 0 0
0 0 0
0 0 0
0.199846 -0.0053722 0
0.194849 -0.00441696 0
0.190691 -0.00348387 0
0.102493 -0.00146862 0
0.099595 -0.00119962 0
0.0972034 -0.00093975 0
0 0 0
0 0 0
0 0 0
0.365957 -0.0111157 0
0.360788 -0.00820149 0
0.356683 -0.00536515 0
0.280217 -0.00691772 0
0.275769 -0.0050661 0
0.272293 -0.00325692 0
0.190691 -0.00348387 0
0.18729 -0.00256145 0
0.184694 -0.00164055 0
0.356683 -0.00536515 0
0.3536 -0.00263466 0
0.351562 0 0
0.272293 -0.00325692 0
0.269719 -0.00151634 0
0.268066 0 0
0.184694 -0.00164055 0
0.182811 -0.000760828 0
0.181641 0 0
0.190691 -0.00348387 0
0.18729 -0.00256145 0
0.184694 -0.00164055 0
0.0972034 -0.00093975 0
0.0952505 -0.000684355 0
0.0938395 -0.000418053 0
0 0 0
0 0 0
0 0 0
0.184694 -0.00164055 0
0.182811 -0.000760828 0
0.181641 0 0
0.0938395 -0.000418053 0
0.0928311 -0.000129003 0
0.0922852 0 0
0 0 0
0 0 0
0 0 0
1.73173 -0.519503 0
1.6899 -0.534482 0
1.64525 -0.54425 0
1.68114 -0.469338 0
1.64216 -0.48221 0
1.60126 -0.490931 0
1.62645 -0.422815 0
1.59 -0.434221 0
1.55232 -0.442189 0
1.64525 -0.54425 0
1.601 -0.54797 0
1.55594 -0.546363 0
1.60126 -0.490931 0
1.56038 -0.495257 0
1.51881 -0.495147 0
1.55232 -0.442189 0
1.51469 -0.446544 0
1.47654 -0.447206 0
1.62645 -0.422815 0
1.59 -0.434221 0
1.55232 -0.442189 0
1.57014 -0.380803 0
1.53592 -0.390413 0
1.5008 -0.397174 0
1.51138 -0.339779 0
1.4787 -0.348363 0
1.44521 -0.354497 0
1.55232 -0.442189 0
1.51469 -0.446544 0
1.47654 -0.447206 0
1.5008 -0.397174 0
1.46563 -0.401062 0
1.43003 -0.401878 0
1.44521 -0.354497 0
1.41169 -0.358145 0
1.3779 -0.359198 0
1.55594 -0.546363 0
1.51306 -0.540157 0
1.47166 -0.529325 0
1.51881 -0.495147 0
1.4792 -0.490681 0
1.44063 -0.482368 0
1.47654 -0.447206 0
1.43989 -0.44432 0
1.40391 -0.438079 0
1.47166 -0.529325 0
1.43417 -0.515224 0
1.39849 -0.497463 0
1.44063 -0.482368 0
1.40512 -0.471011 0
1.37126 -0.456673 0
1.40391 -0.438079 0
1.37025 -0.428973 0
1.33819 -0.417147 0
1.47654 -0.447206 0
1.43989 -0.44432 0
1.40391 -0.438079 0
1.43003 -0.401878 0
1.39557 -0.399708 0
1.36161 -0.394683 0
1.3779 -0.359198 0
1.34508 -0.357745 0
1.31273 -0.353859 0
1.40391 -0.438079 0
1.37025 -0.428973 0
1.33819 -0.417147 0
1.36161 -0.394683 0
1.32955 -0.387131 0
1.29881 -0.377257 0
1.31273 -0.353859 0
1.28194 -0.347789 0
1.25231 -0.339674 0
1.51138 -0.339779 0
1.4787 -0.348363 0
1.44521 -0.354497 0
1.44959 -0.301076 0
1.41816 -0.308811 0
1.38606 -0.314419 0
1.38511 -0.263738 0
1.35477 -0.270723 0
1.32379 -0.275875 0
1.44521 -0.354497 0
1.41169 -0.358145 0
1.3779 -0.359198 0
1.38606 -0.314419 0
1.35397 -0.317876 0
1.32169 -0.319102 0
1.32379 -0.275875 0
1.29282 -0.279175 0
1.2617 -0.280558 0
1.38511 -0.263738 0
1.35477 -0.270723 0
1.32379 -0.275875 0
1.31801 -0.228054 0
1.28846 -0.234251 0
1.25836 -0.238877 0
1.24741 -0.19336 0
1.2185 -0.198897 0
1.18906 -0.203093 0
1.32379 -0.275875 0
1.29282 -0.279175 0
1.2617 -0.280558 0
1.25836 -0.238877 0
1.22826 -0.241916 0
1.19803 -0.243318 0
1.18906 -0.203093 0
1.15963 -0.20594 0
1.13007 -0.207394 0
1.3779 -0.359198 0
1.34508 -0.357745 0
1.31273 -0.353859 0
1.32169 -0.319102 0
1.2902 -0.318175 0
1.25914 -0.315141 0
1.2617 -0.280558 0
1.23126 -0.28009 0
1.2012 -0.277802 0
1.31273 -0.353859 0
1.28194 -0.347789 0
1.25231 -0.339674 0
1.25914 -0.315141 0
1.22941 -0.310191 0
1.20069 -0.303444 0
1.2012 -0.277802 0
1.17229 -0.273849 0
1.14426 -0.268321 0
1.2617 -0.280558 0
1.23126 -0.28009 0
1.2012 -0.277802 0
1.19803 -0.243318 0
1.16837 -0.243143 0
1.13906 -0.241411 0
1.13007 -0.207394 0
1.10101 -0.207506 0
1.07227 -0.20629 0
1.2012 -0.277802 0
1.17229 -0.273849 0
1.14426 -0.268321 0
1.13906 -0.241411 0
1.11074 -0.238254 0
1.08322 -0.233734 0
1.07227 -0.20629 0
1.0444 -0.203852 0
1.01727 -0.200243 0
1.39849 -0.497463 0
1.36705 -0.477341 0
1.33856 -0.454966 0
1.37126 -0.456673 0
1.34094 -0.439908 0
1.31314 -0.421215 0
1.33819 -0.417147 0
1.30903 -0.403152 0
1.28198 -0.387306 0
1.33856 -0.454966 0
1.31371 -0.431658 0
1.29204 -0.407465 0
1.31314 -0.421215 0
1.28849 -0.401197 0
1.26669 -0.380185 0
1.28198 -0.387306 0
1.25762 -0.370111 0
1.23568 -0.351852 0
1.33819 -0.417147 0
1.30903 -0.403152 0
1.28198 -0.387306 0
1.29881 -0.377257 0
1.27046 -0.365526 0
1.24393 -0.352116 0
1.25231 -0.339674 0
1.22469 -0.32985 0
1.19872 -0.318509 0
1.28198 -0.387306 0
1.25762 -0.370111 0
1.23568 -0.351852 0
1.24393 -0.352116 0
1.21973 -0.337432 0
1.19764 -0.32172 0
1.19872 -0.318509 0
1.1748 -0.305981 0
1.15277 -0.292463 0
1.29204 -0.407465 0
1.27364 -0.383002 0
1.25835 -0.358308 0
1.26669 -0.380185 0
1.24783 -0.358632 0
1.23177 -0.336824 0
1.23568 -0.351852 0
1.21633 -0.332938 0
1.19949 -0.313606 0
1.25835 -0.358308 0
1.24554 -0.334107 0
1.23515 -0.310717 0
1.23177 -0.336824 0
1.2179 -0.315033 0
1.20652 -0.293408 0
1.19949 -0.313606 0
1.18466 -0.294131 0
1.17203 -0.274831 0
1.23568 -0.351852 0
1.21633 -0.332938 0
1.19949 -0.313606 0
1.19764 -0.32172 0
1.17791 -0.305313 0
1.16044 -0.288443 0
1.15277 -0.292463 0
1.13287 -0.278237 0
1.11502 -0.263507 0
1.19949 -0.313606 0
1.18466 -0.294131 0
1.17203 -0.274831 0
1.16044 -0.288443 0
1.14485 -0.27136 0
1.13134 -0.254223 0
1.11502 -0.263507 0
1.09891 -0.24846 0
1.08472 -0.23326 0
1.25231 -0.339674 0
1.22469 -0.32985 0
1.19872 -0.318509 0
1.20069 -0.303444 0
1.17371 -0.295174 0
1.1482 -0.28554 0
1.14426 -0.268321 0
1.11775 -0.261436 0
1.09255 -0.253331 0
1.19872 -0.318509 0
1.1748 -0.305981 0
1.15277 -0.292463 0
1.1482 -0.28554 0
1.12448 -0.274821 0
1.10247 -0.26317 0
1.09255 -0.253331 0
1.06894 -0.24423 0
1.04689 -0.234268 0
1.14426 -0.268321 0
1.11775 -0.261436 0
1.09255 -0.253331 0
1.08322 -0.233734 0
1.05702 -0.228034 0
1.03202 -0.22126 0
1.01727 -0.200243 0
0.991314 -0.195608 0
0.966454 -0.190037 0
1.09255 -0.253331 0
1.06894 -0.24423 0
1.04689 -0.234268 0
1.03202 -0.22126 0
1.00845 -0.213602 0
0.986305 -0.205168 0
0.966454 -0.190037 0
0.942892 -0.183684 0
0.920651 -0.17664 0
1.15277 -0.292463 0
1.13287 -0.278237 0
1.11502 -0.263507 0
1.10247 -0.26317 0
1.08236 -0.250829 0
1.06411 -0.237982 0
1.04689 -0.234268 0
1.02656 -0.223652 0
1.00793 -0.212542 0
1.11502 -0.263507 0
1.09891 -0.24846 0
1.08472 -0.23326 0
1.06411 -0.237982 0
1.04747 -0.224808 0
1.0326 -0.211428 0
1.00793 -0.212542 0
0.990829 -0.201088 0
0.975402 -0.189404 0
1.04689 -0.234268 0
1.02656 -0.223652 0
1.00793 -0.212542 0
0.986305 -0.205168 0
0.965734 -0.196135 0
0.946748 -0.186631 0
0.920651 -0.17664 0
0.899855 -0.169051 0
0.880539 -0.161028 0
1.00793 -0.212542 0
0.990829 -0.201088 0
0.975402 -0.189404 0
0.946748 -0.186631 0
0.929194 -0.176784 0
0.913201 -0.166693 0
0.880539 -0.161028 0
0.862578 -0.152681 0
0.846107 -0.144095 0
1.24741 -0.19336 0
1.2185 -0.198897 0
1.18906 -0.203093 0
1.17244 -0.159989 0
1.14415 -0.164874 0
1.11534 -0.168621 0
1.09049 -0.127574 0
1.06299 -0.131823 0
1.03492 -0.135131 0
1.18906 -0.203093 0
1.15963 -0.20594 0
1.13007 -0.207394 0
1.11534 -0.168621 0
1.08652 -0.171226 0
1.05756 -0.172654 0
1.03492 -0.135131 0
1.00679 -0.137499 0
0.978495 -0.138892 0
1.09049 -0.127574 0
1.06299 -0.131823 0
1.03492 -0.135131 0
0.997355 -0.0966563 0
0.97108 -0.100207 0
0.944164 -0.10301 0
0.88535 -0.0675306 0
0.861119 -0.0703366 0
0.836137 -0.0725835 0
1.03492 -0.135131 0
1.00679 -0.137499 0
0.978495 -0.138892 0
0.944164 -0.10301 0
0.917107 -0.105062 0
0.889808 -0.106338 0
0.836137 -0.0725835 0
0.810902 -0.0742753 0
0.78533 -0.0753845 0
1.13007 -0.207394 0
1.10101 -0.207506 0
1.07227 -0.20629 0
1.05756 -0.172654 0
1.02901 -0.172948 0
1.00076 -0.17212 0
0.978495 -0.138892 0
0.950536 -0.139351 0
0.922817 -0.138881 0
1.07227 -0.20629 0
1.0444 -0.203852 0
1.01727 -0.200243 0
1.00076 -0.17212 0
0.973268 -0.17026 0
0.94645 -0.167406 0
0.922817 -0.138881 0
0.895756 -0.137554 0
0.86931 -0.135403 0
0.978495 -0.138892 0
0.950536 -0.139351 0
0.922817 -0.138881 0
0.889808 -0.106338 0
0.862746 -0.106869 0
0.835853 -0.106657 0
0.78533 -0.0753845 0
0.759873 -0.0759387 0
0.734491 -0.0759334 0
0.922817 -0.138881 0
0.895756 -0.137554 0
0.86931 -0.135403 0
0.835853 -0.106657 0
0.809511 -0.105762 0
0.783706 -0.104207 0
0.734491 -0.0759334 0
0.709538 -0.0754175 0
0.68503 -0.0744026 0
0.88535 -0.0675306 0
0.861119 -0.0703366 0
0.836137 -0.0725835 0
0.743886 -0.041667 0
0.722976 -0.0436288 0
0.701215 -0.0452191 0
0.558819 -0.0199206 0
0.542901 -0.0210253 0
0.52613 -0.0219301 0
0.836137 -0.0725835 0
0.810902 -0.0742753 0
0.78533 -0.0753845 0
0.701215 -0.0452191 0
0.679074 -0.0464418 0
0.65649 -0.0472723 0
0.52613 -0.0219301 0
0.508906 -0.0226482 0
0.491189 -0.0231549 0
0.558819 -0.0199206 0
0.542901 -0.0210253 0
0.52613 -0.0219301 0
0.314929 -0.0055442 0
0.305957 -0.00588768 0
0.296326 -0.0061624 0
0 0 0
0 0 0
0 0 0
0.52613 -0.0219301 0
0.508906 -0.0226482 0
0.491189 -0.0231549 0
0.296326 -0.0061624 0
0.28636 -0.00638827 0
0.275983 -0.00653793 0
0 0 0
0 0 0
0 0 0
0.78533 -0.0753845 0
0.759873 -0.0759387 0
0.734491 -0.0759334 0
0.65649 -0.0472723 0
0.633879 -0.0477334 0
0.61123 -0.0478155 0
0.491189 -0.0231549 0
0.473326 -0.023473 0
0.455331 -0.0235854 0
0.734491 -0.0759334 0
0.709538 -0.0754175 0
0.68503 -0.0744026 0
0.61123 -0.0478155 0
0.588863 -0.0475571 0
0.566823 -0.0469602 0