# vtk DataFile Version 3.0
#This file was generated by the deal.II library on 2025/1/8 at 10:48:30
ASCII
DATASET UNSTRUCTURED_GRID

POINTS 34560 double
1.1 1.1 0
1.03125 1.09531 0
0.9625 1.09063 0
1.09375 1.03125 0
1.02539 1.02686 0
0.957031 1.02246 0
1.0875 0.9625 0
1.01953 0.958398 0
0.951563 0.954297 0
0.9625 1.09063 0
0.89375 1.08594 0
0.825 1.08125 0
0.957031 1.02246 0
0.888672 1.01807 0
0.820312 1.01367 0
0.951563 0.954297 0
0.883594 0.950195 0
0.815625 0.946094 0
1.0875 0.9625 0
1.01953 0.958398 0
0.951563 0.954297 0
1.08125 0.89375 0
1.01367 0.889941 0
0.946094 0.886133 0
1.075 0.825 0
1.00781 0.821484 0
0.940625 0.817969 0
0.951563 0.954297 0
0.883594 0.950195 0
0.815625 0.946094 0
0.946094 0.886133 0
0.878516 0.882324 0
0.810938 0.878516 0
0.940625 0.817969 0
0.873438 0.814453 0
0.80625 0.810937 0
0.825 1.08125 0
0.75625 1.07656 0
0.6875 1.07187 0
0.820312 1.01367 0
0.751953 1.00928 0
0.683594 1.00488 0
0.815625 0.946094 0
0.747656 0.941992 0
0.679688 0.937891 0
0.6875 1.07187 0
0.61875 1.06719 0
0.55 1.0625 0
0.683594 1.00488 0
0.615234 1.00049 0
0.546875 0.996094 0
0.679688 0.937891 0
0.611719 0.933789 0
0.54375 0.929688 0
0.815625 0.946094 0
0.747656 0.941992 0
0.679688 0.937891 0
0.810938 0.878516 0
0.743359 0.874707 0
0.675781 0.870898 0
0.80625 0.810937 0
0.739063 0.807422 0
0.671875 0.803906 0
0.679688 0.937891 0
0.611719 0.933789 0
0.54375 0.929688 0
0.675781 0.870898 0
0.608203 0.86709 0
0.540625 0.863281 0
0.671875 0.803906 0
0.604688 0.800391 0
0.5375 0.796875 0
1.075 0.825 0
1.00781 0.821484 0
0.940625 0.817969 0
1.06875 0.75625 0
1.00195 0.753027 0
0.935156 0.749805 0
1.0625 0.6875 0
0.996094 0.68457 0
0.929688 0.681641 0
0.940625 0.817969 0
0.873438 0.814453 0
0.80625 0.810937 0
0.935156 0.749805 0
0.868359 0.746582 0
0.801563 0.743359 0
0.929688 0.681641 0
0.863281 0.678711 0
0.796875 0.675781 0
1.0625 0.6875 0
0.996094 0.68457 0
0.929688 0.681641 0
1.05625 0.61875 0
0.990234 0.616113 0
0.924219 0.613477 0
1.05 0.55 0
0.984375 0.547656 0
0.91875 0.545313 0
0.929688 0.681641 0
0.863281 0.678711 0
0.796875 0.675781 0
0.924219 0.613477 0
0.858203 0.61084 0
0.792188 0.608203 0
0.91875 0.545313 0
0.853125 0.542969 0
0.7875 0.540625 0
0.80625 0.810937 0
0.739063 0.807422 0
0.671875 0.803906 0
0.801563 0.743359 0
0.734766 0.740137 0
0.667969 0.736914 0
0.796875 0.675781 0
0.730469 0.672852 0
0.664062 0.669922 0
0.671875 0.803906 0
0.604688 0.800391 0
0.5375 0.796875 0
0.667969 0.736914 0
0.601172 0.733691 0
0.534375 0.730469 0
0.664062 0.669922 0
0.597656 0.666992 0
0.53125 0.664062 0
0.796875 0.675781 0
0.730469 0.672852 0
0.664062 0.669922 0
0.792188 0.608203 0
0.726172 0.605566 0
0.660156 0.60293 0
0.7875 0.540625 0
0.721875 0.538281 0
0.65625 0.535937 0
0.664062 0.669922 0
0.597656 0.666992 0
0.53125 0.664062 0
0.660156 0.60293 0
0.594141 0.600293 0
0.528125 0.597656 0
0.65625 0.535937 0
0.590625 0.533594 0
0.525 0.53125 0
0.55 1.0625 0
0.48125 1.05781 0
0.4125 1.05313 0
0.546875 0.996094 0
0.478516 0.991699 0
0.410156 0.987305 0
0.54375 0.929688 0
0.475781 0.925586 0
0.407813 0.921484 0
0.4125 1.05313 0
0.34375 1.04844 0
0.275 1.04375 0
0.410156 0.987305 0
0.341797 0.98291 0
0.273438 0.978516 0
0.407813 0.921484 0
0.339844 0.917383 0
0.271875 0.913281 0
0.54375 0.929688 0
0.475781 0.925586 0
0.407813 0.921484 0
0.540625 0.863281 0
0.473047 0.859473 0
0.405469 0.855664 0
0.5375 0.796875 0
0.470313 0.793359 0
0.403125 0.789844 0
0.407813 0.921484 0
0.339844 0.917383 0
0.271875 0.913281 0
0.405469 0.855664 0
0.337891 0.851855 0
0.270313 0.848047 0
0.403125 0.789844 0
0.335938 0.786328 0
0.26875 0.782813 0
0.275 1.04375 0
0.20625 1.03906 0
0.1375 1.03437 0
0.273438 0.978516 0
0.205078 0.974121 0
0.136719 0.969727 0
0.271875 0.913281 0
0.203906 0.90918 0
0.135938 0.905078 0
0.1375 1.03437 0
0.06875 1.02969 0
0 1.025 0
0.136719 0.969727 0
0.0683594 0.965332 0
0 0.960937 0
0.135938 0.905078 0
0.0679688 0.900977 0
0 0.896875 0
0.271875 0.913281 0
0.203906 0.90918 0
0.135938 0.905078 0
0.270313 0.848047 0
0.202734 0.844238 0
0.135156 0.84043 0
0.26875 0.782813 0
0.201563 0.779297 0
0.134375 0.775781 0
0.135938 0.905078 0
0.0679688 0.900977 0
0 0.896875 0
0.135156 0.84043 0
0.0675781 0.836621 0
0 0.832812 0
0.134375 0.775781 0
0.0671875 0.772266 0
0 0.76875 0
0.5375 0.796875 0
0.470313 0.793359 0
0.403125 0.789844 0
0.534375 0.730469 0
0.467578 0.727246 0
0.400781 0.724023 0
0.53125 0.664062 0
0.464844 0.661133 0
0.398438 0.658203 0
0.403125 0.789844 0
0.335938 0.786328 0
0.26875 0.782813 0
0.400781 0.724023 0
0.333984 0.720801 0
0.267188 0.717578 0
0.398438 0.658203 0
0.332031 0.655273 0
0.265625 0.652344 0
0.53125 0.664062 0
0.464844 0.661133 0
0.398438 0.658203 0
0.528125 0.597656 0
0.462109 0.59502 0
0.396094 0.592383 0
0.525 0.53125 0
0.459375 0.528906 0
0.39375 0.526563 0
0.398438 0.658203 0
0.332031 0.655273 0
0.265625 0.652344 0
0.396094 0.592383 0
0.330078 0.589746 0
0.264062 0.587109 0
0.39375 0.526563 0
0.328125 0.524219 0
0.2625 0.521875 0
0.26875 0.782813 0
0.201563 0.779297 0
0.134375 0.775781 0
0.267188 0.717578 0
0.200391 0.714355 0
0.133594 0.711133 0
0.265625 0.652344 0
0.199219 0.649414 0
0.132812 0.646484 0
0.134375 0.775781 0
0.0671875 0.772266 0
0 0.76875 0
0.133594 0.711133 0
0.0667969 0.70791 0
0 0.704687 0
0.132812 0.646484 0
0.0664062 0.643555 0
0 0.640625 0
0.265625 0.652344 0
0.199219 0.649414 0
0.132812 0.646484 0
0.264062 0.587109 0
0.198047 0.584473 0
0.132031 0.581836 0
0.2625 0.521875 0
0.196875 0.519531 0
0.13125 0.517187 0
0.132812 0.646484 0
0.0664062 0.643555 0
0 0.640625 0
0.132031 0.581836 0
0.0660156 0.579199 0
0 0.576562 0
0.13125 0.517187 0
0.065625 0.514844 0
0 0.5125 0
1.05 0.55 0
0.984375 0.547656 0
0.91875 0.545313 0
1.04375 0.48125 0
0.978516 0.479199 0
0.913281 0.477148 0
1.0375 0.4125 0
0.972656 0.410742 0
0.907813 0.408984 0
0.91875 0.545313 0
0.853125 0.542969 0
0.7875 0.540625 0
0.913281 0.477148 0
0.848047 0.475098 0
0.782813 0.473047 0
0.907813 0.408984 0
0.842969 0.407227 0
0.778125 0.405469 0
1.0375 0.4125 0
0.972656 0.410742 0
0.907813 0.408984 0
1.03125 0.34375 0
0.966797 0.342285 0
0.902344 0.34082 0
1.025 0.275 0
0.960937 0.273828 0
0.896875 0.272656 0
0.907813 0.408984 0
0.842969 0.407227 0
0.778125 0.405469 0
0.902344 0.34082 0
0.837891 0.339355 0
0.773438 0.337891 0
0.896875 0.272656 0
0.832812 0.271484 0
0.76875 0.270313 0
0.7875 0.540625 0
0.721875 0.538281 0
0.65625 0.535937 0
0.782813 0.473047 0
0.717578 0.470996 0
0.652344 0.468945 0
0.778125 0.405469 0
0.713281 0.403711 0
0.648438 0.401953 0
0.65625 0.535937 0
0.590625 0.533594 0
0.525 0.53125 0
0.652344 0.468945 0
0.587109 0.466895 0
0.521875 0.464844 0
0.648438 0.401953 0
0.583594 0.400195 0
0.51875 0.398438 0
0.778125 0.405469 0
0.713281 0.403711 0
0.648438 0.401953 0
0.773438 0.337891 0
0.708984 0.336426 0
0.644531 0.334961 0
0.76875 0.270313 0
0.704687 0.269141 0
0.640625 0.267969 0
0.648438 0.401953 0
0.583594 0.400195 0
0.51875 0.398438 0
0.644531 0.334961 0
0.580078 0.333496 0
0.515625 0.332031 0
0.640625 0.267969 0
0.576562 0.266797 0
0.5125 0.265625 0
1.025 0.275 0
0.960937 0.273828 0
0.896875 0.272656 0
1.01875 0.20625 0
0.955078 0.205371 0
0.891406 0.204492 0
1.0125 0.1375 0
0.949219 0.136914 0
0.885937 0.136328 0
0.896875 0.272656 0
0.832812 0.271484 0
0.76875 0.270313 0
0.891406 0.204492 0
0.827734 0.203613 0
0.764062 0.202734 0
0.885937 0.136328 0
0.822656 0.135742 0
0.759375 0.135156 0
1.0125 0.1375 0
0.949219 0.136914 0
0.885937 0.136328 0
1.00625 0.06875 0
0.943359 0.068457 0
0.880469 0.0681641 0
1 0 0
0.9375 0 0
0.875 0 0
0.885937 0.136328 0
0.822656 0.135742 0
0.759375 0.135156 0
0.880469 0.0681641 0
0.817578 0.0678711 0
0.754687 0.0675781 0
0.875 0 0
0.8125 0 0
0.75 0 0
0.76875 0.270313 0
0.704687 0.269141 0
0.640625 0.267969 0
0.764062 0.202734 0
0.700391 0.201855 0
0.636719 0.200977 0
0.759375 0.135156 0
0.696094 0.13457 0
0.632812 0.133984 0
0.640625 0.267969 0
0.576562 0.266797 0
0.5125 0.265625 0
0.636719 0.200977 0
0.573047 0.200098 0
0.509375 0.199219 0
0.632812 0.133984 0
0.569531 0.133398 0
0.50625 0.132812 0
0.759375 0.135156 0
0.696094 0.13457 0
0.632812 0.133984 0
0.754687 0.0675781 0
0.691797 0.0672852 0
0.628906 0.0669922 0
0.75 0 0
0.6875 0 0
0.625 0 0
0.632812 0.133984 0
0.569531 0.133398 0
0.50625 0.132812 0
0.628906 0.0669922 0
0.566016 0.0666992 0
0.503125 0.0664062 0
0.625 0 0
0.5625 0 0
0.5 0 0
0.525 0.53125 0
0.459375 0.528906 0
0.39375 0.526563 0
0.521875 0.464844 0
0.456641 0.462793 0
0.391406 0.460742 0
0.51875 0.398438 0
0.453906 0.39668 0
0.389063 0.394922 0
0.39375 0.526563 0
0.328125 0.524219 0
0.2625 0.521875 0
0.391406 0.460742 0
0.326172 0.458691 0
0.260938 0.456641 0
0.389063 0.394922 0
0.324219 0.393164 0
0.259375 0.391406 0
0.51875 0.398438 0
0.453906 0.39668 0
0.389063 0.394922 0
0.515625 0.332031 0
0.451172 0.330566 0
0.386719 0.329102 0
0.5125 0.265625 0
0.448437 0.264453 0
0.384375 0.263281 0
0.389063 0.394922 0
0.324219 0.393164 0
0.259375 0.391406 0
0.386719 0.329102 0
0.322266 0.327637 0
0.257812 0.326172 0
0.384375 0.263281 0
0.320312 0.262109 0
0.25625 0.260937 0
0.2625 0.521875 0
0.196875 0.519531 0
0.13125 0.517187 0
0.260938 0.456641 0
0.195703 0.45459 0
0.130469 0.452539 0
0.259375 0.391406 0
0.194531 0.389648 0
0.129688 0.387891 0
0.13125 0.517187 0
0.065625 0.514844 0
0 0.5125 0
0.130469 0.452539 0
0.0652344 0.450488 0
0 0.448437 0
0.129688 0.387891 0
0.0648438 0.386133 0
0 0.384375 0
0.259375 0.391406 0
0.194531 0.389648 0
0.129688 0.387891 0
0.257812 0.326172 0
0.193359 0.324707 0
0.128906 0.323242 0
0.25625 0.260937 0
0.192187 0.259766 0
0.128125 0.258594 0
0.129688 0.387891 0
0.0648438 0.386133 0
0 0.384375 0
0.128906 0.323242 0
0.0644531 0.321777 0
0 0.320312 0
0.128125 0.258594 0
0.0640625 0.257422 0
0 0.25625 0
0.5125 0.265625 0
0.448437 0.264453 0
0.384375 0.263281 0
0.509375 0.199219 0
0.445703 0.19834 0
0.382031 0.197461 0
0.50625 0.132812 0
0.442969 0.132227 0
0.379688 0.131641 0
0.384375 0.263281 0
0.320312 0.262109 0
0.25625 0.260937 0
0.382031 0.197461 0
0.318359 0.196582 0
0.254687 0.195703 0
[...]
POINT_DATA 34560
VECTORS v double
1.24832 -0.324133 0
1.23266 -0.293679 0
1.21907 -0.265578 0
1.2191 -0.305252 0
1.20119 -0.278045 0
1.18559 -0.252313 0
1.18401 -0.285272 0
1.1645 -0.260747 0
1.14713 -0.237306 0
1.21907 -0.265578 0
1.20702 -0.239033 0
1.19675 -0.214249 0
1.18559 -0.252313 0
1.17144 -0.22784 0
1.15927 -0.204803 0
1.14713 -0.237306 0
1.13133 -0.214891 0
1.11747 -0.193613 0
1.18401 -0.285272 0
1.1645 -0.260747 0
1.14713 -0.237306 0
1.14272 -0.26334 0
1.12189 -0.241494 0
1.10315 -0.220449 0
1.0955 -0.241196 0
1.07378 -0.221825 0
1.05403 -0.203015 0
1.14713 -0.237306 0
1.13133 -0.214891 0
1.11747 -0.193613 0
1.10315 -0.220449 0
1.08603 -0.200187 0
1.07083 -0.18082 0
1.05403 -0.203015 0
1.03593 -0.184788 0
1.0197 -0.167252 0
1.19675 -0.214249 0
1.18724 -0.190978 0
1.17909 -0.169151 0
1.15927 -0.204803 0
1.14795 -0.182976 0
1.13817 -0.162408 0
1.11747 -0.193613 0
1.10464 -0.173343 0
1.09339 -0.154124 0
1.17909 -0.169151 0
1.17135 -0.148596 0
1.16459 -0.129199 0
1.13817 -0.162408 0
1.12895 -0.142897 0
1.12088 -0.124423 0
1.09339 -0.154124 0
1.0829 -0.13581 0
1.07367 -0.118391 0
1.11747 -0.193613 0
1.10464 -0.173343 0
1.09339 -0.154124 0
1.07083 -0.18082 0
1.05679 -0.16225 0
1.04436 -0.144543 0
1.0197 -0.167252 0
1.00471 -0.150352 0
0.991338 -0.134153 0
1.09339 -0.154124 0
1.0829 -0.13581 0
1.07367 -0.118391 0
1.04436 -0.144543 0
1.03284 -0.12758 0
1.02264 -0.111375 0
0.991338 -0.134153 0
0.97899 -0.118571 0
0.968009 -0.103624 0
1.0955 -0.241196 0
1.07378 -0.221825 0
1.05403 -0.203015 0
1.04283 -0.218284 0
1.02048 -0.201268 0
1.00002 -0.184635 0
0.985131 -0.195296 0
0.962403 -0.180454 0
0.941448 -0.165858 0
1.05403 -0.203015 0
1.03593 -0.184788 0
1.0197 -0.167252 0
1.00002 -0.184635 0
0.981184 -0.168412 0
0.964162 -0.152719 0
0.941448 -0.165858 0
0.922085 -0.151554 0
0.904471 -0.137651 0
0.985131 -0.195296 0
0.962403 -0.180454 0
0.941448 -0.165858 0
0.922512 -0.171707 0
0.899553 -0.15894 0
0.878295 -0.146333 0
0.855079 -0.148323 0
0.832087 -0.137496 0
0.810704 -0.126762 0
0.941448 -0.165858 0
0.922085 -0.151554 0
0.904471 -0.137651 0
0.878295 -0.146333 0
0.858585 -0.133925 0
0.84057 -0.121818 0
0.810704 -0.126762 0
0.790828 -0.11616 0
0.772588 -0.105781 0
1.0197 -0.167252 0
1.00471 -0.150352 0
0.991338 -0.134153 0
0.964162 -0.152719 0
0.948437 -0.137522 0
0.934326 -0.12289 0
0.904471 -0.137651 0
0.888196 -0.124133 0
0.873515 -0.111064 0
0.991338 -0.134153 0
0.97899 -0.118571 0
0.968009 -0.103624 0
0.934326 -0.12289 0
0.921327 -0.108759 0
0.90973 -0.0951549 0
0.873515 -0.111064 0
0.860019 -0.0984038 0
0.847944 -0.0861755 0
0.904471 -0.137651 0
0.888196 -0.124133 0
0.873515 -0.111064 0
0.84057 -0.121818 0
0.823913 -0.110001 0
0.80883 -0.098538 0
0.772588 -0.105781 0
0.755712 -0.095623 0
0.740385 -0.0857421 0
0.873515 -0.111064 0
0.860019 -0.0984038 0
0.847944 -0.0861755 0
0.80883 -0.098538 0
0.794984 -0.0873977 0
0.782574 -0.0766069 0
0.740385 -0.0857421 0
0.72633 -0.0761169 0
0.713715 -0.0667723 0
1.16459 -0.129199 0
1.15811 -0.110806 0
1.15232 -0.0932983 0
1.12088 -0.124423 0
1.11326 -0.106818 0
1.10651 -0.0900182 0
1.07367 -0.118391 0
1.06505 -0.101733 0
1.05743 -0.0857885 0
1.15232 -0.0932983 0
1.14678 -0.0765391 0
1.14175 -0.0604141 0
1.10651 -0.0900182 0
1.10016 -0.0738901 0
1.09449 -0.058348 0
1.05743 -0.0857885 0
1.05037 -0.0704454 0
1.04413 -0.0556348 0
1.07367 -0.118391 0
1.06505 -0.101733 0
1.05743 -0.0857885 0
1.02264 -0.111375 0
1.01322 -0.0958154 0
1.00488 -0.0808745 0
0.968009 -0.103624 0
0.957928 -0.0892283 0
0.949011 -0.0753645 0
1.05743 -0.0857885 0
1.05037 -0.0704454 0
1.04413 -0.0556348 0
1.00488 -0.0808745 0
0.997252 -0.0664572 0
0.990548 -0.0525125 0
0.949011 -0.0753645 0
0.940924 -0.0619579 0
0.933851 -0.0489679 0
1.14175 -0.0604141 0
1.13699 -0.0448027 0
1.13265 -0.0295959 0
1.09449 -0.058348 0
1.08923 -0.0432842 0
1.08455 -0.0286017 0
1.04413 -0.0556348 0
1.03844 -0.0412626 0
1.03347 -0.0272502 0
1.13265 -0.0295959 0
1.12862 -0.0146846 0
1.125 0 0
1.08455 -0.0286017 0
1.08034 -0.0142106 0
1.07666 0 0
1.03347 -0.0272502 0
1.0291 -0.0135159 0
1.02539 0 0
1.04413 -0.0556348 0
1.03844 -0.0412626 0
1.03347 -0.0272502 0
0.990548 -0.0525125 0
0.984537 -0.0389602 0
0.979351 -0.0257372 0
0.933851 -0.0489679 0
0.927585 -0.03633 0
0.922241 -0.0239931 0
1.03347 -0.0272502 0
1.0291 -0.0135159 0
1.02539 0 0
0.979351 -0.0257372 0
0.974879 -0.0127751 0
0.971191 0 0
0.922241 -0.0239931 0
0.917713 -0.0118999 0
0.914062 0 0
0.968009 -0.103624 0
0.957928 -0.0892283 0
0.949011 -0.0753645 0
0.90973 -0.0951549 0
0.899135 -0.0820109 0
0.889763 -0.0693185 0
0.847944 -0.0861755 0
0.836956 -0.0743307 0
0.827239 -0.0628654 0
0.949011 -0.0753645 0
0.940924 -0.0619579 0
0.933851 -0.0489679 0
0.889763 -0.0693185 0
0.881325 -0.057017 0
0.873977 -0.0450773 0
0.827239 -0.0628654 0
0.818543 -0.0517325 0
0.811 -0.0409107 0
0.847944 -0.0861755 0
0.836956 -0.0743307 0
0.827239 -0.0628654 0
0.782574 -0.0766069 0
0.771316 -0.0661267 0
0.761367 -0.0559593 0
0.713715 -0.0667723 0
0.702304 -0.0576785 0
0.692228 -0.0488391 0
0.827239 -0.0628654 0
0.818543 -0.0517325 0
0.811 -0.0409107 0
0.761367 -0.0559593 0
0.752511 -0.0460664 0
0.744861 -0.0364351 0
0.692228 -0.0488391 0
0.683302 -0.0402245 0
0.675622 -0.031826 0
0.933851 -0.0489679 0
0.927585 -0.03633 0
0.922241 -0.0239931 0
0.873977 -0.0450773 0
0.867534 -0.0334468 0
0.862096 -0.0220868 0
0.811 -0.0409107 0
0.804447 -0.0303591 0
0.798968 -0.0200483 0
0.922241 -0.0239931 0
0.917713 -0.0118999 0
0.914062 0 0
0.862096 -0.0220868 0
0.857567 -0.0109515 0
0.854004 0 0
0.798968 -0.0200483 0
0.794476 -0.00994375 0
0.791016 0 0
0.811 -0.0409107 0
0.804447 -0.0303591 0
0.798968 -0.0200483 0
0.744861 -0.0364351 0
0.738269 -0.027033 0
0.73281 -0.0178422 0
0.675622 -0.031826 0
0.669056 -0.0236202 0
0.663669 -0.0155949 0
0.798968 -0.0200483 0
0.794476 -0.00994375 0
0.791016 0 0
0.73281 -0.0178422 0
0.728406 -0.0088352 0
0.725098 0 0
0.663669 -0.0155949 0
0.659391 -0.00773583 0
0.65625 0 0
0.855079 -0.148323 0
0.832087 -0.137496 0
0.810704 -0.126762 0
0.782843 -0.12468 0
0.75995 -0.115696 0
0.738609 -0.106767 0
0.705294 -0.101405 0
0.682734 -0.0941676 0
0.661654 -0.0869607 0
0.810704 -0.126762 0
0.790828 -0.11616 0
0.772588 -0.105781 0
0.738609 -0.106767 0
0.718724 -0.0979263 0
0.700426 -0.0892527 0
0.661654 -0.0869607 0
0.641984 -0.0798124 0
0.623847 -0.0727909 0
0.705294 -0.101405 0
0.682734 -0.0941676 0
0.661654 -0.0869607 0
0.621509 -0.078279 0
0.599571 -0.0727012 0
0.579066 -0.0671482 0
0.529385 -0.0561371 0
0.508657 -0.0521338 0
0.489279 -0.0481524 0
0.661654 -0.0869607 0
0.641984 -0.0798124 0
0.623847 -0.0727909 0
0.579066 -0.0671482 0
0.559914 -0.0616373 0
0.542243 -0.0562252 0
0.489279 -0.0481524 0
0.471183 -0.0442003 0
0.454489 -0.0403244 0
0.772588 -0.105781 0
0.755712 -0.095623 0
0.740385 -0.0857421 0
0.700426 -0.0892527 0
0.683488 -0.0807466 0
0.668074 -0.0724577 0
0.623847 -0.0727909 0
0.607056 -0.0658961 0
0.591756 -0.0591706 0
0.740385 -0.0857421 0
0.72633 -0.0761169 0
0.713715 -0.0667723 0
0.668074 -0.0724577 0
0.653954 -0.0643682 0
0.641274 -0.0565009 0
0.591756 -0.0591706 0
0.577756 -0.0525997 0
0.565182 -0.0462022 0
0.623847 -0.0727909 0
0.607056 -0.0658961 0
0.591756 -0.0591706 0
0.542243 -0.0562252 0
0.525887 -0.0509092 0
0.510979 -0.0457248 0
0.454489 -0.0403244 0
0.439049 -0.0365183 0
0.424982 -0.0328112 0
0.591756 -0.0591706 0
0.577756 -0.0525997 0
0.565182 -0.0462022 0
0.510979 -0.0457248 0
0.497354 -0.0406576 0
0.485125 -0.0357229 0
0.424982 -0.0328112 0
0.412141 -0.0291887 0
0.40063 -0.0256638 0
0.529385 -0.0561371 0
0.508657 -0.0521338 0
0.489279 -0.0481524 0
0.425831 -0.0354537 0
0.407234 -0.0328927 0
0.389889 -0.0303545 0
0.306309 -0.0177222 0
0.291414 -0.0164333 0
0.277552 -0.0151647 0
0.489279 -0.0481524 0
0.471183 -0.0442003 0
0.454489 -0.0403244 0
0.389889 -0.0303545 0
0.3737 -0.0278379 0
0.358792 -0.0253787 0
0.277552 -0.0151647 0
0.264635 -0.0139027 0
0.25277 -0.012676 0
0.306309 -0.0177222 0
0.291414 -0.0164333 0
0.277552 -0.0151647 0
0.165588 -0.00498043 0
0.156656 -0.00460296 0
0.148406 -0.00424173 0
0 0 0
0 0 0
0 0 0
0.277552 -0.0151647 0
0.264635 -0.0139027 0
0.25277 -0.012676 0
0.148406 -0.00424173 0
0.140708 -0.00387523 0
0.133686 -0.00352838 0
0 0 0
0 0 0
0 0 0
0.454489 -0.0403244 0
0.439049 -0.0365183 0
0.424982 -0.0328112 0
0.358792 -0.0253787 0
0.345018 -0.0229669 0
0.332491 -0.0206255 0
0.25277 -0.012676 0
0.241827 -0.0114717 0
0.231897 -0.0103082 0
0.424982 -0.0328112 0
0.412141 -0.0291887 0
0.40063 -0.0256638 0
0.332491 -0.0206255 0
0.321071 -0.0183402 0
0.310855 -0.0161218 0
0.231897 -0.0103082 0
0.222858 -0.00917183 0
0.21479 -0.00807373 0
0.25277 -0.012676 0
0.241827 -0.0114717 0
0.231897 -0.0103082 0
0.133686 -0.00352838 0
0.1272 -0.00318293 0
0.121356 -0.00285713 0
0 0 0
0 0 0
0 0 0
0.231897 -0.0103082 0
0.222858 -0.00917183 0
0.21479 -0.00807373 0
0.121356 -0.00285713 0
0.116024 -0.00253424 0
0.111296 -0.0022288 0
0 0 0
0 0 0
0 0 0
0.713715 -0.0667723 0
0.702304 -0.0576785 0
0.692228 -0.0488391 0
0.641274 -0.0565009 0
0.629832 -0.0488304 0
0.619744 -0.0413618 0
0.565182 -0.0462022 0
0.553863 -0.0399564 0
0.543901 -0.0338667 0
0.692228 -0.0488391 0
0.683302 -0.0402245 0
0.675622 -0.031826 0
0.619744 -0.0413618 0
0.610847 -0.0340697 0
0.603225 -0.0269506 0
0.543901 -0.0338667 0
0.535151 -0.0279113 0
0.527691 -0.022088 0
0.565182 -0.0462022 0
0.553863 -0.0399564 0
0.543901 -0.0338667 0
0.485125 -0.0357229 0
0.474142 -0.0309 0
0.464497 -0.0261922 0
0.40063 -0.0256638 0
0.390313 -0.0222167 0
0.381276 -0.018849 0
0.543901 -0.0338667 0
0.535151 -0.0279113 0
0.527691 -0.022088 0
0.464497 -0.0261922 0
0.456062 -0.0215789 0
0.448907 -0.0170586 0
0.381276 -0.018849 0
0.373404 -0.0155406 0
0.366765 -0.0122895 0
0.675622 -0.031826 0
0.669056 -0.0236202 0
0.663669 -0.0155949 0
0.603225 -0.0269506 0
0.596759 -0.0199868 0
0.591503 -0.0131771 0
0.527691 -0.022088 0
0.521404 -0.0163855 0
0.516344 -0.0108078 0
0.663669 -0.0155949 0
0.659391 -0.00773583 0
0.65625 0 0
0.591503 -0.0131771 0
0.587398 -0.0065097 0
0.584473 0 0
0.516344 -0.0108078 0
0.512457 -0.00535995 0
0.509766 0 0
0.527691 -0.022088 0
0.521404 -0.0163855 0
0.516344 -0.0108078 0
0.448907 -0.0170586 0
0.442917 -0.0126218 0
0.438142 -0.00828733 0
0.366765 -0.0122895 0
0.361247 -0.00908806 0
0.35689 -0.00595067 0
0.516344 -0.0108078 0
0.512457 -0.00535995 0
0.509766 0 0
0.438142 -0.00828733 0
0.434536 -0.00406688 0
0.432129 0 0
0.35689 -0.00595067 0
0.353652 -0.0029207 0
0.351562 0 0
0.40063 -0.0256638 0
0.390313 -0.0222167 0
0.381276 -0.018849 0
0.310855 -0.0161218 0
0.301713 -0.0139525 0
0.29373 -0.0118329 0
0.21479 -0.00807373 0
0.207582 -0.00699935 0
0.201306 -0.00595028 0
0.381276 -0.018849 0
0.373404 -0.0155406 0
0.366765 -0.0122895 0
0.29373 -0.0118329 0
0.2868 -0.00974382 0
0.280997 -0.00768414 0
0.201306 -0.00595028 0
0.195871 -0.00491126 0
0.19135 -0.00388571 0
0.21479 -0.00807373 0
0.207582 -0.00699935 0
0.201306 -0.00595028 0
0.111296 -0.0022288 0
0.10706 -0.00192749 0
0.103401 -0.00163624 0
0 0 0
0 0 0
0 0 0
0.201306 -0.00595028 0
0.195871 -0.00491126 0
0.19135 -0.00388571 0
0.103401 -0.00163624 0
0.100219 -0.00134125 0
0.0975982 -0.00105347 0
0 0 0
0 0 0
0 0 0
0.366765 -0.0122895 0
0.361247 -0.00908806 0
0.35689 -0.00595067 0
0.280997 -0.00768414 0
0.27621 -0.00564052 0
0.272494 -0.00362987 0
0.19135 -0.00388571 0
0.18766 -0.00286338 0
0.18486 -0.00183566 0
0.35689 -0.00595067 0
0.353652 -0.0029207 0
0.351562 0 0
0.272494 -0.00362987 0
0.26977 -0.00168955 0
0.268066 0 0
0.18486 -0.00183566 0
0.182853 -0.000850583 0
0.181641 0 0
0.19135 -0.00388571 0
0.18766 -0.00286338 0
0.18486 -0.00183566 0
0.0975982 -0.00105347 0
0.0954594 -0.000768823 0
0.093928 -0.000469942 0
0 0 0
0 0 0
0 0 0
0.18486 -0.00183566 0
0.182853 -0.000850583 0
0.181641 0 0
0.093928 -0.000469942 0
0.0928465 -0.000145042 0
0.0922852 0 0
0 0 0
0 0 0
0 0 0
1.76825 -0.492015 0
1.72517 -0.511289 0
1.67993 -0.525277 0
1.71245 -0.440472 0
1.6729 -0.458039 0
1.63151 -0.471096 0
1.65252 -0.393404 0
1.61639 -0.409319 0
1.57863 -0.421516 0
1.67993 -0.525277 0
1.63423 -0.533814 0
1.58775 -0.53662 0
1.63151 -0.471096 0
1.58982 -0.479539 0
1.54741 -0.483257 0
1.57863 -0.421516 0
1.54055 -0.4299 0
1.50183 -0.434287 0
1.65252 -0.393404 0
1.61639 -0.409319 0
1.57863 -0.421516 0
1.59162 -0.351556 0
1.55813 -0.36555 0
1.52328 -0.3764 0
1.52855 -0.31127 0
1.4969 -0.323862 0
1.46404 -0.333763 0
1.57863 -0.421516 0
1.54055 -0.4299 0
1.50183 -0.434287 0
1.52328 -0.3764 0
1.48807 -0.383989 0
1.45226 -0.388231 0
1.46404 -0.333763 0
1.43091 -0.340921 0
1.39723 -0.345233 0
1.58775 -0.53662 0
1.54383 -0.534199 0
1.50051 -0.526479 0
1.54741 -0.483257 0
1.50691 -0.48256 0
1.46687 -0.477609 0
1.50183 -0.434287 0
1.46446 -0.43488 0
1.42756 -0.431759 0
1.50051 -0.526479 0
1.46107 -0.51481 0
1.42378 -0.499379 0
1.46687 -0.477609 0
1.42988 -0.468918 0
1.39462 -0.456956 0
1.42756 -0.431759 0
1.39298 -0.425358 0
1.35976 -0.415977 0
1.50183 -0.434287 0
1.46446 -0.43488 0
1.42756 -0.431759 0
1.45226 -0.388231 0
1.41743 -0.389263 0
1.38291 -0.387176 0
1.39723 -0.345233 0
1.36432 -0.346805 0
1.33166 -0.345698 0
1.42756 -0.431759 0
1.39298 -0.425358 0
1.35976 -0.415977 0
1.38291 -0.387176 0
1.35018 -0.382331 0
1.31854 -0.374893 0
1.33166 -0.345698 0
1.30045 -0.342171 0
1.27019 -0.336367 0
1.52855 -0.31127 0
1.4969 -0.323862 0
1.46404 -0.333763 0
1.46277 -0.273737 0
1.43271 -0.285163 0
1.40158 -0.294253 0
1.39463 -0.237916 0
1.36594 -0.248248 0
1.33623 -0.256569 0
1.46404 -0.333763 0
1.43091 -0.340921 0
1.39723 -0.345233 0
1.40158 -0.294253 0
1.37019 -0.300952 0
1.33829 -0.305202 0
1.33623 -0.256569 0
1.30626 -0.262843 0
1.27581 -0.26701 0
1.39463 -0.237916 0
1.36594 -0.248248 0
1.33623 -0.256569 0
1.32418 -0.204139 0
1.29656 -0.213333 0
1.268 -0.220807 0
1.2505 -0.171609 0
1.22378 -0.179793 0
1.19613 -0.186513 0
1.33623 -0.256569 0
1.30626 -0.262843 0
1.27581 -0.26701 0
1.268 -0.220807 0
1.23916 -0.226529 0
1.20984 -0.230451 0
1.19613 -0.186513 0
1.1682 -0.191744 0
1.13979 -0.195445 0
1.39723 -0.345233 0
1.36432 -0.346805 0
1.33166 -0.345698 0
1.33829 -0.305202 0
1.307 -0.307079 0
1.2759 -0.306635 0
1.27581 -0.26701 0
1.24582 -0.269131 0
1.21596 -0.269243 0
1.33166 -0.345698 0
1.30045 -0.342171 0
1.27019 -0.336367 0
1.2759 -0.306635 0
1.24599 -0.304076 0
1.21688 -0.29951 0
1.21596 -0.269243 0
1.18708 -0.267507 0
1.15888 -0.264008 0
1.27581 -0.26701 0
1.24582 -0.269131 0
1.21596 -0.269243 0
1.20984 -0.230451 0
1.18088 -0.232624 0
1.15199 -0.233075 0
1.13979 -0.195445 0
1.11165 -0.197657 0
1.08354 -0.198399 0
1.21596 -0.269243 0
1.18708 -0.267507 0
1.15888 -0.264008 0
1.15199 -0.233075 0
1.12392 -0.231937 0
1.09642 -0.229273 0
1.08354 -0.198399 0
1.05611 -0.197775 0
1.02919 -0.195839 0
1.42378 -0.499379 0
1.3907 -0.481606 0
1.36061 -0.461274 0
1.39462 -0.456956 0
1.36291 -0.442405 0
1.33374 -0.425682 0
1.35976 -0.415977 0
1.3294 -0.404196 0
1.30116 -0.390323 0
1.36061 -0.461274 0
1.33426 -0.439697 0
1.31098 -0.416945 0
1.33374 -0.425682 0
1.30774 -0.407456 0
1.28451 -0.388 0
1.30116 -0.390323 0
1.27561 -0.374892 0
1.25244 -0.358169 0
1.35976 -0.415977 0
1.3294 -0.404196 0
1.30116 -0.390323 0
1.31854 -0.374893 0
1.28925 -0.365296 0
1.26173 -0.353797 0
1.27019 -0.336367 0
1.2419 -0.328619 0
1.21513 -0.319144 0
1.30116 -0.390323 0
1.27561 -0.374892 0
1.25244 -0.358169 0
1.26173 -0.353797 0
1.23651 -0.340834 0
1.21336 -0.326635 0
1.21513 -0.319144 0
1.19036 -0.308286 0
1.16741 -0.296245 0
1.31098 -0.416945 0
1.29103 -0.393705 0
1.2743 -0.370055 0
1.28451 -0.388 0
1.26429 -0.36774 0
1.24691 -0.347022 0
1.25244 -0.358169 0
1.23191 -0.340574 0
1.21386 -0.322358 0
1.2743 -0.370055 0
1.26009 -0.346761 0
1.24832 -0.324133 0
1.24691 -0.347022 0
1.23174 -0.326146 0
1.2191 -0.305252 0
1.21386 -0.322358 0
1.19783 -0.303813 0
1.18401 -0.285272 0
1.25244 -0.358169 0
1.23191 -0.340574 0
1.21386 -0.322358 0
1.21336 -0.326635 0
1.19257 -0.311556 0
1.17401 -0.295823 0
1.16741 -0.296245 0
1.14658 -0.283317 0
1.12778 -0.269708 0
1.21386 -0.322358 0
1.19783 -0.303813 0
1.18401 -0.285272 0
1.17401 -0.295823 0
1.15733 -0.279695 0
1.14272 -0.26334 0
1.12778 -0.269708 0
1.11069 -0.255614 0
1.0955 -0.241196 0
1.27019 -0.336367 0
1.2419 -0.328619 0
1.21513 -0.319144 0
1.21688 -0.29951 0
1.18943 -0.293216 0
1.1633 -0.285364 0
1.15888 -0.264008 0
1.13209 -0.258972 0
1.10645 -0.252539 0
1.21513 -0.319144 0
1.19036 -0.308286 0
1.16741 -0.296245 0
1.1633 -0.285364 0
1.1389 -0.276239 0
1.11612 -0.266002 0
1.10645 -0.252539 0
1.08232 -0.244942 0
1.05964 -0.236318 0
1.15888 -0.264008 0
1.13209 -0.258972 0
1.10645 -0.252539 0
1.09642 -0.229273 0
1.07012 -0.225271 0
1.04485 -0.22004 0
1.02919 -0.195839 0
1.0033 -0.192737 0
0.978315 -0.188564 0
1.10645 -0.252539 0
1.08232 -0.244942 0
1.05964 -0.236318 0
1.04485 -0.22004 0
1.0209 -0.213774 0
0.998256 -0.206584 0
0.978315 -0.188564 0
0.954519 -0.183475 0
0.931903 -0.177565 0
1.16741 -0.296245 0
1.14658 -0.283317 0
1.12778 -0.269708 0
1.11612 -0.266002 0
1.09522 -0.254909 0
1.07613 -0.243144 0
1.05964 -0.236318 0
1.03863 -0.226886 0
1.01926 -0.216807 0
1.12778 -0.269708 0
1.11069 -0.255614 0
1.0955 -0.241196 0
1.07613 -0.243144 0
1.05861 -0.230896 0
1.04283 -0.218284 0
1.01926 -0.216807 0
1.00138 -0.20624 0
0.985131 -0.195296 0
1.05964 -0.236318 0
1.03863 -0.226886 0
1.01926 -0.216807 0
0.998256 -0.206584 0
0.977125 -0.198653 0
0.957498 -0.190113 0
0.931903 -0.177565 0
0.910657 -0.170982 0
0.890795 -0.163844 0
1.01926 -0.216807 0
1.00138 -0.20624 0
0.985131 -0.195296 0
0.957498 -0.190113 0
0.939252 -0.181099 0
0.922512 -0.171707 0
0.890795 -0.163844 0
0.872225 -0.156263 0
0.855079 -0.148323 0
1.2505 -0.171609 0
1.22378 -0.179793 0
1.19613 -0.186513 0
1.17267 -0.140738 0
1.14683 -0.147908 0
1.12006 -0.153843 0
1.08809 -0.111061 0
1.06329 -0.117227 0
1.0375 -0.122377 0
1.19613 -0.186513 0
1.1682 -0.191744 0
1.13979 -0.195445 0
1.12006 -0.153843 0
1.09297 -0.158519 0
1.06538 -0.161906 0
1.0375 -0.122377 0
1.01134 -0.126495 0
0.984636 -0.129548 0
1.08809 -0.111061 0
1.06329 -0.117227 0
1.0375 -0.122377 0
0.992606 -0.0831974 0
0.969275 -0.0882829 0
0.944873 -0.0925664 0
0.87882 -0.0573327 0
0.857713 -0.0612809 0
0.835418 -0.0646375 0
1.0375 -0.122377 0
1.01134 -0.126495 0
0.984636 -0.129548 0
0.944873 -0.0925664 0
0.919997 -0.0960317 0
0.8945 -0.0986516 0
0.835418 -0.0646375 0
0.812529 -0.0673928 0
0.788917 -0.069518 0
1.13979 -0.195445 0
1.11165 -0.197657 0
1.08354 -0.198399 0
1.06538 -0.161906 0
1.03797 -0.164036 0
1.01055 -0.164923 0
0.984636 -0.129548 0
0.958009 -0.131567 0
0.931311 -0.132557 0
1.08354 -0.198399 0
1.05611 -0.197775 0
1.02919 -0.195839 0
1.01055 -0.164923 0
0.983685 -0.164656 0
0.957247 -0.163272 0
0.931311 -0.132557 0
0.905054 -0.13259 0
0.879151 -0.131696 0
0.984636 -0.129548 0
0.958009 -0.131567 0
0.931311 -0.132557 0
0.8945 -0.0986516 0
0.868963 -0.100449 0
0.843268 -0.101427 0
0.788917 -0.069518 0
0.76513 -0.0710327 0
0.741083 -0.0719316 0
0.931311 -0.132557 0
0.905054 -0.13259 0
0.879151 -0.131696 0
0.843268 -0.101427 0
0.817892 -0.101641 0
0.79278 -0.101112 0
0.741083 -0.0719316 0
0.717221 -0.0722604 0
0.693519 -0.0720289 0
0.87882 -0.0573327 0
0.857713 -0.0612809 0
0.835418 -0.0646375 0
0.736563 -0.0348724 0
0.718787 -0.0375865 0
0.699739 -0.039913 0
0.552279 -0.0163578 0
0.539143 -0.017852 0
0.52479 -0.0191417 0
0.835418 -0.0646375 0
0.812529 -0.0673928 0
0.788917 -0.069518 0
0.699739 -0.039913 0
0.679981 -0.0418455 0
0.6594 -0.0433574 0
0.52479 -0.0191417 0
0.509697 -0.0202328 0
0.493777 -0.0210994 0
0.552279 -0.0163578 0
0.539143 -0.017852 0
0.52479 -0.0191417 0
0.311143 -0.00450623 0
0.303985 -0.00496429 0
0.29592 -0.00535348 0
0 0 0
0 0 0
0 0 0
0.52479 -0.0191417 0
0.509697 -0.0202328 0
0.493777 -0.0210994 0
0.29592 -0.00535348 0
0.287348 -0.00569063 0
0.278132 -0.00594791 0
0 0 0
0 0 0
0 0 0
0.788917 -0.069518 0
0.76513 -0.0710327 0
0.741083 -0.0719316 0
0.6594 -0.0433574 0
0.638504 -0.0444652 0
0.617236 -0.0451576 0
0.493777 -0.0210994 0
0.477455 -0.0217606 0
0.460703 -0.0221974 0
0.741083 -0.0719316 0
0.717221 -0.0722604 0
0.693519 -0.0720289 0
0.617236 -0.0451576 0
0.596006 -0.0454707 0
0.574817 -0.0454039 0