# vtk DataFile Version 3.0
#This file was generated by the deal.II library on 2025/1/8 at 9:53:12
ASCII
DATASET UNSTRUCTURED_GRID

POINTS 34560 double
1.1 1.1 0
1.03125 1.09531 0
0.9625 1.09063 0
1.09375 1.03125 0
1.02539 1.02686 0
0.957031 1.02246 0
1.0875 0.9625 0
1.01953 0.958398 0
0.951563 0.954297 0
0.9625 1.09063 0
0.89375 1.08594 0
0.825 1.08125 0
0.957031 1.02246 0
0.888672 1.01807 0
0.820312 1.01367 0
0.951563 0.954297 0
0.883594 0.950195 0
0.815625 0.946094 0
1.0875 0.9625 0
1.01953 0.958398 0
0.951563 0.954297 0
1.08125 0.89375 0
1.01367 0.889941 0
0.946094 0.886133 0
1.075 0.825 0
1.00781 0.821484 0
0.940625 0.817969 0
0.951563 0.954297 0
0.883594 0.950195 0
0.815625 0.946094 0
0.946094 0.886133 0
0.878516 0.882324 0
0.810938 0.878516 0
0.940625 0.817969 0
0.873438 0.814453 0
0.80625 0.810937 0
0.825 1.08125 0
0.75625 1.07656 0
0.6875 1.07187 0
0.820312 1.01367 0
0.751953 1.00928 0
0.683594 1.00488 0
0.815625 0.946094 0
0.747656 0.941992 0
0.679688 0.937891 0
0.6875 1.07187 0
0.61875 1.06719 0
0.55 1.0625 0
0.683594 1.00488 0
0.615234 1.00049 0
0.546875 0.996094 0
0.679688 0.937891 0
0.611719 0.933789 0
0.54375 0.929688 0
0.815625 0.946094 0
0.747656 0.941992 0
0.679688 0.937891 0
0.810938 0.878516 0
0.743359 0.874707 0
0.675781 0.870898 0
0.80625 0.810937 0
0.739063 0.807422 0
0.671875 0.803906 0
0.679688 0.937891 0
0.611719 0.933789 0
0.54375 0.929688 0
0.675781 0.870898 0
0.608203 0.86709 0
0.540625 0.863281 0
0.671875 0.803906 0
0.604688 0.800391 0
0.5375 0.796875 0
1.075 0.825 0
1.00781 0.821484 0
0.940625 0.817969 0
1.06875 0.75625 0
1.00195 0.753027 0
0.935156 0.749805 0
1.0625 0.6875 0
0.996094 0.68457 0
0.929688 0.681641 0
0.940625 0.817969 0
0.873438 0.814453 0
0.80625 0.810937 0
0.935156 0.749805 0
0.868359 0.746582 0
0.801563 0.743359 0
0.929688 0.681641 0
0.863281 0.678711 0
0.796875 0.675781 0
1.0625 0.6875 0
0.996094 0.68457 0
0.929688 0.681641 0
1.05625 0.61875 0
0.990234 0.616113 0
0.924219 0.613477 0
1.05 0.55 0
0.984375 0.547656 0
0.91875 0.545313 0
0.929688 0.681641 0
0.863281 0.678711 0
0.796875 0.675781 0
0.924219 0.613477 0
0.858203 0.61084 0
0.792188 0.608203 0
0.91875 0.545313 0
0.853125 0.542969 0
0.7875 0.540625 0
0.80625 0.810937 0
0.739063 0.807422 0
0.671875 0.803906 0
0.801563 0.743359 0
0.734766 0.740137 0
0.667969 0.736914 0
0.796875 0.675781 0
0.730469 0.672852 0
0.664062 0.669922 0
0.671875 0.803906 0
0.604688 0.800391 0
0.5375 0.796875 0
0.667969 0.736914 0
0.601172 0.733691 0
0.534375 0.730469 0
0.664062 0.669922 0
0.597656 0.666992 0
0.53125 0.664062 0
0.796875 0.675781 0
0.730469 0.672852 0
0.664062 0.669922 0
0.792188 0.608203 0
0.726172 0.605566 0
0.660156 0.60293 0
0.7875 0.540625 0
0.721875 0.538281 0
0.65625 0.535937 0
0.664062 0.669922 0
0.597656 0.666992 0
0.53125 0.664062 0
0.660156 0.60293 0
0.594141 0.600293 0
0.528125 0.597656 0
0.65625 0.535937 0
0.590625 0.533594 0
0.525 0.53125 0
0.55 1.0625 0
0.48125 1.05781 0
0.4125 1.05313 0
0.546875 0.996094 0
0.478516 0.991699 0
0.410156 0.987305 0
0.54375 0.929688 0
0.475781 0.925586 0
0.407813 0.921484 0
0.4125 1.05313 0
0.34375 1.04844 0
0.275 1.04375 0
0.410156 0.987305 0
0.341797 0.98291 0
0.273438 0.978516 0
0.407813 0.921484 0
0.339844 0.917383 0
0.271875 0.913281 0
0.54375 0.929688 0
0.475781 0.925586 0
0.407813 0.921484 0
0.540625 0.863281 0
0.473047 0.859473 0
0.405469 0.855664 0
0.5375 0.796875 0
0.470313 0.793359 0
0.403125 0.789844 0
0.407813 0.921484 0
0.339844 0.917383 0
0.271875 0.913281 0
0.405469 0.855664 0
0.337891 0.851855 0
0.270313 0.848047 0
0.403125 0.789844 0
0.335938 0.786328 0
0.26875 0.782813 0
0.275 1.04375 0
0.20625 1.03906 0
0.1375 1.03437 0
0.273438 0.978516 0
0.205078 0.974121 0
0.136719 0.969727 0
0.271875 0.913281 0
0.203906 0.90918 0
0.135938 0.905078 0
0.1375 1.03437 0
0.06875 1.02969 0
0 1.025 0
0.136719 0.969727 0
0.0683594 0.965332 0
0 0.960937 0
0.135938 0.905078 0
0.0679688 0.900977 0
0 0.896875 0
0.271875 0.913281 0
0.203906 0.90918 0
0.135938 0.905078 0
0.270313 0.848047 0
0.202734 0.844238 0
0.135156 0.84043 0
0.26875 0.782813 0
0.201563 0.779297 0
0.134375 0.775781 0
0.135938 0.905078 0
0.0679688 0.900977 0
0 0.896875 0
0.135156 0.84043 0
0.0675781 0.836621 0
0 0.832812 0
0.134375 0.775781 0
0.0671875 0.772266 0
0 0.76875 0
0.5375 0.796875 0
0.470313 0.793359 0
0.403125 0.789844 0
0.534375 0.730469 0
0.467578 0.727246 0
0.400781 0.724023 0
0.53125 0.664062 0
0.464844 0.661133 0
0.398438 0.658203 0
0.403125 0.789844 0
0.335938 0.786328 0
0.26875 0.782813 0
0.400781 0.724023 0
0.333984 0.720801 0
0.267188 0.717578 0
0.398438 0.658203 0
0.332031 0.655273 0
0.265625 0.652344 0
0.53125 0.664062 0
0.464844 0.661133 0
0.398438 0.658203 0
0.528125 0.597656 0
0.462109 0.59502 0
0.396094 0.592383 0
0.525 0.53125 0
0.459375 0.528906 0
0.39375 0.526563 0
0.398438 0.658203 0
0.332031 0.655273 0
0.265625 0.652344 0
0.396094 0.592383 0
0.330078 0.589746 0
0.264062 0.587109 0
0.39375 0.526563 0
0.328125 0.524219 0
0.2625 0.521875 0
0.26875 0.782813 0
0.201563 0.779297 0
0.134375 0.775781 0
0.267188 0.717578 0
0.200391 0.714355 0
0.133594 0.711133 0
0.265625 0.652344 0
0.199219 0.649414 0
0.132812 0.646484 0
0.134375 0.775781 0
0.0671875 0.772266 0
0 0.76875 0
0.133594 0.711133 0
0.0667969 0.70791 0
0 0.704687 0
0.132812 0.646484 0
0.0664062 0.643555 0
0 0.640625 0
0.265625 0.652344 0
0.199219 0.649414 0
0.132812 0.646484 0
0.264062 0.587109 0
0.198047 0.584473 0
0.132031 0.581836 0
0.2625 0.521875 0
0.196875 0.519531 0
0.13125 0.517187 0
0.132812 0.646484 0
0.0664062 0.643555 0
0 0.640625 0
0.132031 0.581836 0
0.0660156 0.579199 0
0 0.576562 0
0.13125 0.517187 0
0.065625 0.514844 0
0 0.5125 0
1.05 0.55 0
0.984375 0.547656 0
0.91875 0.545313 0
1.04375 0.48125 0
0.978516 0.479199 0
0.913281 0.477148 0
1.0375 0.4125 0
0.972656 0.410742 0
0.907813 0.408984 0
0.91875 0.545313 0
0.853125 0.542969 0
0.7875 0.540625 0
0.913281 0.477148 0
0.848047 0.475098 0
0.782813 0.473047 0
0.907813 0.408984 0
0.842969 0.407227 0
0.778125 0.405469 0
1.0375 0.4125 0
0.972656 0.410742 0
0.907813 0.408984 0
1.03125 0.34375 0
0.966797 0.342285 0
0.902344 0.34082 0
1.025 0.275 0
0.960937 0.273828 0
0.896875 0.272656 0
0.907813 0.408984 0
0.842969 0.407227 0
0.778125 0.405469 0
0.902344 0.34082 0
0.837891 0.339355 0
0.773438 0.337891 0
0.896875 0.272656 0
0.832812 0.271484 0
0.76875 0.270313 0
0.7875 0.540625 0
0.721875 0.538281 0
0.65625 0.535937 0
0.782813 0.473047 0
0.717578 0.470996 0
0.652344 0.468945 0
0.778125 0.405469 0
0.713281 0.403711 0
0.648438 0.401953 0
0.65625 0.535937 0
0.590625 0.533594 0
0.525 0.53125 0
0.652344 0.468945 0
0.587109 0.466895 0
0.521875 0.464844 0
0.648438 0.401953 0
0.583594 0.400195 0
0.51875 0.398438 0
0.778125 0.405469 0
0.713281 0.403711 0
0.648438 0.401953 0
0.773438 0.337891 0
0.708984 0.336426 0
0.644531 0.334961 0
0.76875 0.270313 0
0.704687 0.269141 0
0.640625 0.267969 0
0.648438 0.401953 0
0.583594 0.400195 0
0.51875 0.398438 0
0.644531 0.334961 0
0.580078 0.333496 0
0.515625 0.332031 0
0.640625 0.267969 0
0.576562 0.266797 0
0.5125 0.265625 0
1.025 0.275 0
0.960937 0.273828 0
0.896875 0.272656 0
1.01875 0.20625 0
0.955078 0.205371 0
0.891406 0.204492 0
1.0125 0.1375 0
0.949219 0.136914 0
0.885937 0.136328 0
0.896875 0.272656 0
0.832812 0.271484 0
0.76875 0.270313 0
0.891406 0.204492 0
0.827734 0.203613 0
0.764062 0.202734 0
0.885937 0.136328 0
0.822656 0.135742 0
0.759375 0.135156 0
1.0125 0.1375 0
0.949219 0.136914 0
0.885937 0.136328 0
1.00625 0.06875 0
0.943359 0.068457 0
0.880469 0.0681641 0
1 0 0
0.9375 0 0
0.875 0 0
0.885937 0.136328 0
0.822656 0.135742 0
0.759375 0.135156 0
0.880469 0.0681641 0
0.817578 0.0678711 0
0.754687 0.0675781 0
0.875 0 0
0.8125 0 0
0.75 0 0
0.76875 0.270313 0
0.704687 0.269141 0
0.640625 0.267969 0
0.764062 0.202734 0
0.700391 0.201855 0
0.636719 0.200977 0
0.759375 0.135156 0
0.696094 0.13457 0
0.632812 0.133984 0
0.640625 0.267969 0
0.576562 0.266797 0
0.5125 0.265625 0
0.636719 0.200977 0
0.573047 0.200098 0
0.509375 0.199219 0
0.632812 0.133984 0
0.569531 0.133398 0
0.50625 0.132812 0
0.759375 0.135156 0
0.696094 0.13457 0
0.632812 0.133984 0
0.754687 0.0675781 0
0.691797 0.0672852 0
0.628906 0.0669922 0
0.75 0 0
0.6875 0 0
0.625 0 0
0.632812 0.133984 0
0.569531 0.133398 0
0.50625 0.132812 0
0.628906 0.0669922 0
0.566016 0.0666992 0
0.503125 0.0664062 0
0.625 0 0
0.5625 0 0
0.5 0 0
0.525 0.53125 0
0.459375 0.528906 0
0.39375 0.526563 0
0.521875 0.464844 0
0.456641 0.462793 0
0.391406 0.460742 0
0.51875 0.398438 0
0.453906 0.39668 0
0.389063 0.394922 0
0.39375 0.526563 0
0.328125 0.524219 0
0.2625 0.521875 0
0.391406 0.460742 0
0.326172 0.458691 0
0.260938 0.456641 0
0.389063 0.394922 0
0.324219 0.393164 0
0.259375 0.391406 0
0.51875 0.398438 0
0.453906 0.39668 0
0.389063 0.394922 0
0.515625 0.332031 0
0.451172 0.330566 0
0.386719 0.329102 0
0.5125 0.265625 0
0.448437 0.264453 0
0.384375 0.263281 0
0.389063 0.394922 0
0.324219 0.393164 0
0.259375 0.391406 0
0.386719 0.329102 0
0.322266 0.327637 0
0.257812 0.326172 0
0.384375 0.263281 0
0.320312 0.262109 0
0.25625 0.260937 0
0.2625 0.521875 0
0.196875 0.519531 0
0.13125 0.517187 0
0.260938 0.456641 0
0.195703 0.45459 0
0.130469 0.452539 0
0.259375 0.391406 0
0.194531 0.389648 0
0.129688 0.387891 0
0.13125 0.517187 0
0.065625 0.514844 0
0 0.5125 0
0.130469 0.452539 0
0.0652344 0.450488 0
0 0.448437 0
0.129688 0.387891 0
0.0648438 0.386133 0
0 0.384375 0
0.259375 0.391406 0
0.194531 0.389648 0
0.129688 0.387891 0
0.257812 0.326172 0
0.193359 0.324707 0
0.128906 0.323242 0
0.25625 0.260937 0
0.192187 0.259766 0
0.128125 0.258594 0
0.129688 0.387891 0
0.0648438 0.386133 0
0 0.384375 0
0.128906 0.323242 0
0.0644531 0.321777 0
0 0.320312 0
0.128125 0.258594 0
0.0640625 0.257422 0
0 0.25625 0
0.5125 0.265625 0
0.448437 0.264453 0
0.384375 0.263281 0
0.509375 0.199219 0
0.445703 0.19834 0
0.382031 0.197461 0
0.50625 0.132812 0
0.442969 0.132227 0
0.379688 0.131641 0
0.384375 0.263281 0
0.320312 0.262109 0
0.25625 0.260937 0
0.382031 0.197461 0
0.318359 0.196582 0
0.254687 0.195703 0
[...]
POINT_DATA 34560
VECTORS v double
1.2354 -0.305989 0
1.22141 -0.276097 0
1.20935 -0.248735 0
1.2067 -0.288805 0
1.19034 -0.262065 0
1.17622 -0.236956 0
1.17212 -0.270399 0
1.15409 -0.24625 0
1.13811 -0.223337 0
1.20935 -0.248735 0
1.19872 -0.223071 0
1.18974 -0.199302 0
1.17622 -0.236956 0
1.16342 -0.213251 0
1.15249 -0.191109 0
1.13811 -0.223337 0
1.12359 -0.20159 0
1.11092 -0.181104 0
1.17212 -0.270399 0
1.15409 -0.24625 0
1.13811 -0.223337 0
1.13135 -0.249973 0
1.1119 -0.228427 0
1.09449 -0.207828 0
1.08463 -0.229239 0
1.06422 -0.2101 0
1.04571 -0.19166 0
1.13811 -0.223337 0
1.12359 -0.20159 0
1.11092 -0.181104 0
1.09449 -0.207828 0
1.07859 -0.188142 0
1.06452 -0.169471 0
1.04571 -0.19166 0
1.02877 -0.173927 0
1.01362 -0.157 0
1.18974 -0.199302 0
1.18141 -0.177155 0
1.17431 -0.156547 0
1.15249 -0.191109 0
1.1423 -0.170289 0
1.13353 -0.150821 0
1.11092 -0.181104 0
1.09917 -0.161736 0
1.08891 -0.14351 0
1.17431 -0.156547 0
1.16752 -0.13728 0
1.16158 -0.119224 0
1.13353 -0.150821 0
1.12523 -0.132486 0
1.11796 -0.115239 0
1.08891 -0.14351 0
1.0793 -0.126264 0
1.07083 -0.109967 0
1.11092 -0.181104 0
1.09917 -0.161736 0
1.08891 -0.14351 0
1.06452 -0.169471 0
1.05152 -0.151703 0
1.04003 -0.134887 0
1.01362 -0.157 0
0.999628 -0.140809 0
0.987157 -0.125405 0
1.08891 -0.14351 0
1.0793 -0.126264 0
1.07083 -0.109967 0
1.04003 -0.134887 0
1.02935 -0.118889 0
1.0199 -0.103703 0
0.987157 -0.125405 0
0.975626 -0.110691 0
0.965362 -0.0966665 0
1.08463 -0.229239 0
1.06422 -0.2101 0
1.04571 -0.19166 0
1.03242 -0.207659 0
1.0113 -0.190817 0
0.992019 -0.174489 0
0.975131 -0.185921 0
0.953563 -0.171208 0
0.933724 -0.156862 0
1.04571 -0.19166 0
1.02877 -0.173927 0
1.01362 -0.157 0
0.992019 -0.174489 0
0.974289 -0.158689 0
0.958297 -0.143526 0
0.933724 -0.156862 0
0.915419 -0.142916 0
0.898793 -0.12947 0
0.975131 -0.185921 0
0.953563 -0.171208 0
0.933724 -0.156862 0
0.912844 -0.163527 0
0.890986 -0.150854 0
0.870794 -0.138449 0
0.845669 -0.141279 0
0.823729 -0.130518 0
0.803369 -0.119946 0
0.933724 -0.156862 0
0.915419 -0.142916 0
0.898793 -0.12947 0
0.870794 -0.138449 0
0.852099 -0.126344 0
0.835038 -0.114627 0
0.803369 -0.119946 0
0.784475 -0.109596 0
0.767161 -0.0995478 0
1.01362 -0.157 0
0.999628 -0.140809 0
0.987157 -0.125405 0
0.958297 -0.143526 0
0.94353 -0.128954 0
0.930285 -0.115028 0
0.898793 -0.12947 0
0.88344 -0.116497 0
0.869597 -0.104052 0
0.987157 -0.125405 0
0.975626 -0.110691 0
0.965362 -0.0966665 0
0.930285 -0.115028 0
0.918076 -0.101673 0
0.907172 -0.0888971 0
0.869597 -0.104052 0
0.856866 -0.0920784 0
0.845464 -0.080589 0
0.898793 -0.12947 0
0.88344 -0.116497 0
0.869597 -0.104052 0
0.835038 -0.114627 0
0.819275 -0.103283 0
0.805008 -0.0923631 0
0.767161 -0.0995478 0
0.751158 -0.0897935 0
0.736631 -0.08038 0
0.869597 -0.104052 0
0.856866 -0.0920784 0
0.845464 -0.080589 0
0.805008 -0.0923631 0
0.79191 -0.0818257 0
0.780158 -0.0716862 0
0.736631 -0.08038 0
0.723311 -0.0712765 0
0.711346 -0.0624976 0
1.16158 -0.119224 0
1.15582 -0.102196 0
1.15065 -0.0860638 0
1.11796 -0.115239 0
1.11104 -0.0988918 0
1.10488 -0.0833608 0
1.07083 -0.109967 0
1.0629 -0.0944638 0
1.05585 -0.0796876 0
1.15065 -0.0860638 0
1.14563 -0.070662 0
1.14102 -0.0558625 0
1.10488 -0.0833608 0
1.09904 -0.0684881 0
1.09377 -0.0541717 0
1.05585 -0.0796876 0
1.04928 -0.0655012 0
1.04343 -0.05182 0
1.07083 -0.109967 0
1.0629 -0.0944638 0
1.05585 -0.0796876 0
1.0199 -0.103703 0
1.01113 -0.0891971 0
1.00335 -0.0753251 0
0.965362 -0.0966665 0
0.955917 -0.0832277 0
0.947538 -0.0703381 0
1.05585 -0.0796876 0
1.04928 -0.0655012 0
1.04343 -0.05182 0
1.00335 -0.0753251 0
0.996199 -0.0619678 0
0.989874 -0.0490579 0
0.947538 -0.0703381 0
0.939907 -0.0578988 0
0.9332 -0.0458531 0
1.14102 -0.0558625 0
1.13658 -0.0415181 0
1.13247 -0.0275065 0
1.09377 -0.0541717 0
1.08883 -0.0402784 0
1.08438 -0.0266967 0
1.04343 -0.05182 0
1.03806 -0.0385242 0
1.0333 -0.0255206 0
1.13247 -0.0275065 0
1.12858 -0.0136928 0
1.125 0 0
1.08438 -0.0266967 0
1.08029 -0.0133113 0
1.07666 0 0
1.0333 -0.0255206 0
1.02905 -0.0127021 0
1.02539 0 0
1.04343 -0.05182 0
1.03806 -0.0385242 0
1.0333 -0.0255206 0
0.989874 -0.0490579 0
0.984161 -0.0364898 0
0.979187 -0.0241853 0
0.9332 -0.0458531 0
0.927221 -0.0341108 0
0.922082 -0.0226059 0
1.0333 -0.0255206 0
1.02905 -0.0127021 0
1.02539 0 0
0.979187 -0.0241853 0
0.974838 -0.0120509 0
0.971191 0 0
0.922082 -0.0226059 0
0.917673 -0.0112556 0
0.914062 0 0
0.965362 -0.0966665 0
0.955917 -0.0832277 0
0.947538 -0.0703381 0
0.907172 -0.0888971 0
0.897191 -0.0766169 0
0.88834 -0.0648068 0
0.845464 -0.080589 0
0.835073 -0.0695175 0
0.825862 -0.0588448 0
0.947538 -0.0703381 0
0.939907 -0.0578988 0
0.9332 -0.0458531 0
0.88834 -0.0648068 0
0.880344 -0.0533825 0
0.87335 -0.0422991 0
0.825862 -0.0588448 0
0.817594 -0.0485014 0
0.810394 -0.0384502 0
0.845464 -0.080589 0
0.835073 -0.0695175 0
0.825862 -0.0588448 0
0.780158 -0.0716862 0
0.769485 -0.0618905 0
0.760031 -0.0524271 0
0.711346 -0.0624976 0
0.700512 -0.0540007 0
0.690924 -0.0457773 0
0.825862 -0.0588448 0
0.817594 -0.0485014 0
0.810394 -0.0384502 0
0.760031 -0.0524271 0
0.751593 -0.0432369 0
0.744276 -0.0342916 0
0.690924 -0.0457773 0
0.682409 -0.037779 0
0.675055 -0.0299826 0
0.9332 -0.0458531 0
0.927221 -0.0341108 0
0.922082 -0.0226059 0
0.87335 -0.0422991 0
0.867184 -0.0314782 0
0.861944 -0.0208663 0
0.810394 -0.0384502 0
0.804108 -0.0286249 0
0.798822 -0.0189811 0
0.922082 -0.0226059 0
0.917673 -0.0112556 0
0.914062 0 0
0.861944 -0.0208663 0
0.857529 -0.0103918 0
0.854004 0 0
0.798822 -0.0189811 0
0.794439 -0.00945805 0
0.791016 0 0
0.810394 -0.0384502 0
0.804108 -0.0286249 0
0.798822 -0.0189811 0
0.744276 -0.0342916 0
0.737943 -0.0255342 0
0.73267 -0.0169311 0
0.675055 -0.0299826 0
0.668741 -0.0223409 0
0.663534 -0.0148262 0
0.798822 -0.0189811 0
0.794439 -0.00945805 0
0.791016 0 0
0.73267 -0.0169311 0
0.72837 -0.00842886 0
0.725098 0 0
0.663534 -0.0148262 0
0.659356 -0.00739764 0
0.65625 0 0
0.845669 -0.141279 0
0.823729 -0.130518 0
0.803369 -0.119946 0
0.773597 -0.11873 0
0.751717 -0.109792 0
0.731368 -0.100994 0
0.696149 -0.0965164 0
0.674574 -0.089312 0
0.654461 -0.0822096 0
0.803369 -0.119946 0
0.784475 -0.109596 0
0.767161 -0.0995478 0
0.731368 -0.100994 0
0.71244 -0.0923618 0
0.695052 -0.0839663 0
0.654461 -0.0822096 0
0.635733 -0.0752308 0
0.618495 -0.0684373 0
0.696149 -0.0965164 0
0.674574 -0.089312 0
0.654461 -0.0822096 0
0.61244 -0.0744259 0
0.591466 -0.0688763 0
0.571913 -0.0634082 0
0.520532 -0.0533034 0
0.500743 -0.049325 0
0.482296 -0.0454102 0
0.654461 -0.0822096 0
0.635733 -0.0752308 0
0.618495 -0.0684373 0
0.571913 -0.0634082 0
0.553693 -0.0580342 0
0.536914 -0.0528052 0
0.482296 -0.0454102 0
0.465112 -0.041563 0
0.449293 -0.0378255 0
0.767161 -0.0995478 0
0.751158 -0.0897935 0
0.736631 -0.08038 0
0.695052 -0.0839663 0
0.678974 -0.0758013 0
0.664353 -0.0679084 0
0.618495 -0.0684373 0
0.602559 -0.0618232 0
0.588049 -0.0554244 0
0.736631 -0.08038 0
0.723311 -0.0712765 0
0.711346 -0.0624976 0
0.664353 -0.0679084 0
0.650964 -0.0602622 0
0.638931 -0.0528769 0
0.588049 -0.0554244 0
0.574779 -0.0492195 0
0.562854 -0.0432205 0
0.618495 -0.0684373 0
0.602559 -0.0618232 0
0.588049 -0.0554244 0
0.536914 -0.0528052 0
0.521409 -0.0477137 0
0.507291 -0.0427896 0
0.449293 -0.0378255 0
0.434688 -0.0341878 0
0.421397 -0.0306746 0
0.588049 -0.0554244 0
0.574779 -0.0492195 0
0.562854 -0.0432205 0
0.507291 -0.0427896 0
0.494396 -0.0380134 0
0.482819 -0.0333948 0
0.421397 -0.0306746 0
0.409274 -0.0272678 0
0.398403 -0.0239759 0
0.520532 -0.0533034 0
0.500743 -0.049325 0
0.482296 -0.0454102 0
0.417589 -0.0335945 0
0.399882 -0.0310577 0
0.383416 -0.0285706 0
0.299508 -0.0167675 0
0.285378 -0.0154949 0
0.272264 -0.0142556 0
0.482296 -0.0454102 0
0.465112 -0.041563 0
0.449293 -0.0378255 0
0.383416 -0.0285706 0
0.368089 -0.0261297 0
0.354004 -0.0237671 0
0.272264 -0.0142556 0
0.260078 -0.0130358 0
0.248905 -0.0118613 0
0.299508 -0.0167675 0
0.285378 -0.0154949 0
0.272264 -0.0142556 0
0.161532 -0.00469774 0
0.153089 -0.00432782 0
0.14531 -0.00397747 0
0 0 0
0 0 0
0 0 0
0.272264 -0.0142556 0
0.260078 -0.0130358 0
0.248905 -0.0118613 0
0.14531 -0.00397747 0
0.138069 -0.00362589 0
0.131473 -0.00329622 0
0 0 0
0 0 0
0 0 0
0.449293 -0.0378255 0
0.434688 -0.0341878 0
0.421397 -0.0306746 0
0.354004 -0.0237671 0
0.341015 -0.0214707 0
0.329214 -0.0192601 0
0.248905 -0.0118613 0
0.238618 -0.0107184 0
0.229291 -0.00962358 0
0.421397 -0.0306746 0
0.409274 -0.0272678 0
0.398403 -0.0239759 0
0.329214 -0.0192601 0
0.318464 -0.0171183 0
0.308842 -0.0150537 0
0.229291 -0.00962358 0
0.220804 -0.00856185 0
0.213223 -0.0075428 0
0.248905 -0.0118613 0
0.238618 -0.0107184 0
0.229291 -0.00962358 0
0.131473 -0.00329622 0
0.125389 -0.00297061 0
0.119905 -0.00266605 0
0 0 0
0 0 0
0 0 0
0.229291 -0.00962358 0
0.220804 -0.00856185 0
0.213223 -0.0075428 0
0.119905 -0.00266605 0
0.114903 -0.00236606 0
0.11046 -0.00208419 0
0 0 0
0 0 0
0 0 0
0.711346 -0.0624976 0
0.700512 -0.0540007 0
0.690924 -0.0457773 0
0.638931 -0.0528769 0
0.628064 -0.0457162 0
0.618464 -0.0387752 0
0.562854 -0.0432205 0
0.552112 -0.0373969 0
0.542638 -0.031745 0
0.690924 -0.0457773 0
0.682409 -0.037779 0
0.675055 -0.0299826 0
0.618464 -0.0387752 0
0.609974 -0.0320123 0
0.602674 -0.0254106 0
0.542638 -0.031745 0
0.534295 -0.0262299 0
0.527155 -0.0208375 0
0.562854 -0.0432205 0
0.552112 -0.0373969 0
0.542638 -0.031745 0
0.482819 -0.0333948 0
0.472413 -0.0289064 0
0.463258 -0.0245457 0
0.398403 -0.0239759 0
0.388652 -0.0207749 0
0.380094 -0.0176623 0
0.542638 -0.031745 0
0.534295 -0.0262299 0
0.527155 -0.0208375 0
0.463258 -0.0245457 0
0.455228 -0.0202818 0
0.44839 -0.0161039 0
0.380094 -0.0176623 0
0.372617 -0.0146109 0
0.366284 -0.0116121 0
0.675055 -0.0299826 0
0.668741 -0.0223409 0
0.663534 -0.0148262 0
0.602674 -0.0254106 0
0.596455 -0.0189304 0
0.591374 -0.0125546 0
0.527155 -0.0208375 0
0.521111 -0.0155371 0
0.516221 -0.0103173 0
0.663534 -0.0148262 0
0.659356 -0.00739764 0
0.65625 0 0
0.591374 -0.0125546 0
0.587365 -0.00624559 0
0.584473 0 0
0.516221 -0.0103173 0
0.512426 -0.0051574 0
0.509766 0 0
0.527155 -0.0208375 0
0.521111 -0.0155371 0
0.516221 -0.0103173 0
0.44839 -0.0161039 0
0.442638 -0.0119863 0
0.438026 -0.00793322 0
0.366284 -0.0116121 0
0.360991 -0.00864568 0
0.356786 -0.0057144 0
0.516221 -0.0103173 0
0.512426 -0.0051574 0
0.509766 0 0
0.438026 -0.00793322 0
0.434507 -0.00393215 0
0.432129 0 0
0.356786 -0.0057144 0
0.353627 -0.00283841 0
0.351562 0 0
0.398403 -0.0239759 0
0.388652 -0.0207749 0
0.380094 -0.0176623 0
0.308842 -0.0150537 0
0.300226 -0.0130455 0
0.292684 -0.011092 0
0.213223 -0.0075428 0
0.206442 -0.00655065 0
0.200521 -0.00558596 0
0.380094 -0.0176623 0
0.372617 -0.0146109 0
0.366284 -0.0116121 0
0.292684 -0.011092 0
0.286116 -0.00917005 0
0.280588 -0.00727434 0
0.200521 -0.00558596 0
0.195374 -0.00463172 0
0.191069 -0.00368924 0
0.213223 -0.0075428 0
0.206442 -0.00655065 0
0.200521 -0.00558596 0
0.11046 -0.00208419 0
0.106472 -0.00180709 0
0.103013 -0.00154035 0
0 0 0
0 0 0
0 0 0
0.200521 -0.00558596 0
0.195374 -0.00463172 0
0.191069 -0.00368924 0
0.103013 -0.00154035 0
0.0999935 -0.0012699 0
0.0974869 -0.0010059 0
0 0 0
0 0 0
0 0 0
0.366284 -0.0116121 0
0.360991 -0.00864568 0
0.356786 -0.0057144 0
0.280588 -0.00727434 0
0.276001 -0.0053835 0
0.272412 -0.0035059 0
0.191069 -0.00368924 0
0.187527 -0.00274441 0
0.184815 -0.00178455 0
0.356786 -0.0057144 0
0.353627 -0.00283841 0
0.351562 0 0
0.272412 -0.0035059 0
0.269752 -0.00166098 0
0.268066 0 0
0.184815 -0.00178455 0
0.182846 -0.000845546 0
0.181641 0 0
0.191069 -0.00368924 0
0.187527 -0.00274441 0
0.184815 -0.00178455 0
0.0974869 -0.0010059 0
0.0954239 -0.000743067 0
0.0939274 -0.000463468 0
0 0 0
0 0 0
0 0 0
0.184815 -0.00178455 0
0.182846 -0.000845546 0
0.181641 0 0
0.0939274 -0.000463468 0
0.0928522 -0.000151918 0
0.0922852 0 0
0 0 0
0 0 0
0 0 0
1.73096 -0.494581 0
1.6888 -0.510776 0
1.6452 -0.522138 0
1.67783 -0.445076 0
1.63915 -0.459522 0
1.59913 -0.469769 0
1.62081 -0.399133 0
1.58549 -0.412213 0
1.54868 -0.421842 0
1.6452 -0.522138 0
1.60139 -0.528866 0
1.55616 -0.52979 0
1.59913 -0.469769 0
1.55896 -0.476078 0
1.51781 -0.477857 0
1.54868 -0.421842 0
1.51158 -0.42804 0
1.474 -0.430409 0
1.62081 -0.399133 0
1.58549 -0.412213 0
1.54868 -0.421842 0
1.56258 -0.358162 0
1.52964 -0.369548 0
1.49547 -0.377979 0
1.50197 -0.318503 0
1.47068 -0.328625 0
1.43835 -0.336242 0
1.54868 -0.421842 0
1.51158 -0.42804 0
1.474 -0.430409 0
1.49547 -0.377979 0
1.46107 -0.383323 0
1.42626 -0.38553 0
1.43835 -0.336242 0
1.40588 -0.341308 0
1.37301 -0.34371 0
1.55616 -0.52979 0
1.51383 -0.525071 0
1.47211 -0.515323 0
1.51781 -0.477857 0
1.47868 -0.475249 0
1.43998 -0.46856 0
1.474 -0.430409 0
1.43794 -0.429093 0
1.40229 -0.424254 0
1.47211 -0.515323 0
1.43399 -0.501969 0
1.39846 -0.485237 0
1.43998 -0.46856 0
1.40432 -0.458168 0
1.37065 -0.444738 0
1.40229 -0.424254 0
1.369 -0.416275 0
1.33714 -0.405535 0
1.474 -0.430409 0
1.43794 -0.429093 0
1.40229 -0.424254 0
1.42626 -0.38553 0
1.39253 -0.384792 0
1.35911 -0.381112 0
1.37301 -0.34371 0
1.34098 -0.343556 0
1.30928 -0.340895 0
1.40229 -0.424254 0
1.369 -0.416275 0
1.33714 -0.405535 0
1.35911 -0.381112 0
1.32753 -0.374803 0
1.2971 -0.366075 0
1.30928 -0.340895 0
1.27911 -0.335964 0
1.24995 -0.328922 0
1.50197 -0.318503 0
1.47068 -0.328625 0
1.43835 -0.336242 0
1.43856 -0.281338 0
1.40866 -0.290459 0
1.37787 -0.29741 0
1.3726 -0.245658 0
1.34388 -0.253852 0
1.31434 -0.260188 0
1.43835 -0.336242 0
1.40588 -0.341308 0
1.37301 -0.34371 0
1.37787 -0.29741 0
1.34695 -0.30213 0
1.31569 -0.304568 0
1.31434 -0.260188 0
1.28468 -0.264627 0
1.2547 -0.267112 0
1.3726 -0.245658 0
1.34388 -0.253852 0
1.31434 -0.260188 0
1.30414 -0.211757 0
1.27631 -0.219002 0
1.24774 -0.224663 0
1.23227 -0.178917 0
1.20516 -0.185351 0
1.17734 -0.190439 0
1.31434 -0.260188 0
1.28468 -0.264627 0
1.2547 -0.267112 0
1.24774 -0.224663 0
1.21905 -0.228708 0
1.19006 -0.231089 0
1.17734 -0.190439 0
1.1494 -0.19416 0
1.12118 -0.196469 0
1.37301 -0.34371 0
1.34098 -0.343556 0
1.30928 -0.340895 0
1.31569 -0.304568 0
1.28513 -0.304811 0
1.25487 -0.302891 0
1.2547 -0.267112 0
1.22529 -0.267703 0
1.19613 -0.266432 0
1.30928 -0.340895 0
1.27911 -0.335964 0
1.24995 -0.328922 0
1.25487 -0.302891 0
1.22587 -0.299011 0
1.19774 -0.293276 0
1.19613 -0.266432 0
1.16803 -0.263451 0
1.14071 -0.258851 0
1.2547 -0.267112 0
1.22529 -0.267703 0
1.19613 -0.266432 0
1.19006 -0.231089 0
1.16154 -0.231855 0
1.13323 -0.23103 0
1.12118 -0.196469 0
1.09335 -0.197409 0
1.06571 -0.196995 0
1.19613 -0.266432 0
1.16803 -0.263451 0
1.14071 -0.258851 0
1.13323 -0.23103 0
1.10582 -0.228745 0
1.0791 -0.225063 0
1.06571 -0.196995 0
1.03884 -0.19533 0
1.01259 -0.192466 0
1.39846 -0.485237 0
1.36717 -0.46652 0
1.33867 -0.44532 0
1.37065 -0.444738 0
1.34052 -0.429111 0
1.31285 -0.411499 0
1.33714 -0.405535 0
1.3081 -0.392637 0
1.28125 -0.377818 0
1.33867 -0.44532 0
1.31389 -0.422904 0
1.29218 -0.399515 0
1.31285 -0.411499 0
1.28834 -0.39249 0
1.26657 -0.372419 0
1.28125 -0.377818 0
1.25712 -0.361593 0
1.23533 -0.344242 0
1.33714 -0.405535 0
1.3081 -0.392637 0
1.28125 -0.377818 0
1.2971 -0.366075 0
1.26902 -0.355337 0
1.2428 -0.342875 0
1.24995 -0.328922 0
1.22278 -0.320093 0
1.19719 -0.309693 0
1.28125 -0.377818 0
1.25712 -0.361593 0
1.23533 -0.344242 0
1.2428 -0.342875 0
1.21888 -0.329138 0
1.19702 -0.314322 0
1.19719 -0.309693 0
1.1736 -0.298065 0
1.15186 -0.285404 0
1.29218 -0.399515 0
1.27375 -0.375845 0
1.25852 -0.351966 0
1.26657 -0.372419 0
1.24777 -0.351687 0
1.2318 -0.330668 0
1.23533 -0.344242 0
1.21614 -0.326172 0
1.19941 -0.307648 0
1.25852 -0.351966 0
1.24577 -0.328588 0
1.2354 -0.305989 0
1.2318 -0.330668 0
1.21801 -0.309669 0
1.2067 -0.288805 0
1.19941 -0.307648 0
1.18467 -0.288952 0
1.17212 -0.270399 0
1.23533 -0.344242 0
1.21614 -0.326172 0
1.19941 -0.307648 0
1.19702 -0.314322 0
1.1775 -0.29877 0
1.16019 -0.282709 0
1.15186 -0.285404 0
1.13222 -0.271996 0
1.1146 -0.258044 0
1.19941 -0.307648 0
1.18467 -0.288952 0
1.17212 -0.270399 0
1.16019 -0.282709 0
1.14474 -0.266385 0
1.13135 -0.249973 0
1.1146 -0.258044 0
1.09868 -0.243737 0
1.08463 -0.229239 0
1.24995 -0.328922 0
1.22278 -0.320093 0
1.19719 -0.309693 0
1.19774 -0.293276 0
1.1713 -0.285949 0
1.14624 -0.277212 0
1.14071 -0.258851 0
1.11484 -0.252842 0
1.09018 -0.245573 0
1.19719 -0.309693 0
1.1736 -0.298065 0
1.15186 -0.285404 0
1.14624 -0.277212 0
1.12294 -0.267342 0
1.10128 -0.2565 0
1.09018 -0.245573 0
1.06707 -0.237267 0
1.04543 -0.228066 0
1.14071 -0.258851 0
1.11484 -0.252842 0
1.09018 -0.245573 0
1.0791 -0.225063 0
1.05363 -0.220163 0
1.02925 -0.214156 0
1.01259 -0.192466 0
0.987439 -0.188545 0
0.963279 -0.183661 0
1.09018 -0.245573 0
1.06707 -0.237267 0
1.04543 -0.228066 0
1.02925 -0.214156 0
1.00624 -0.207228 0
0.984578 -0.199493 0
0.963279 -0.183661 0
0.940352 -0.177965 0
0.918655 -0.171552 0
1.15186 -0.285404 0
1.13222 -0.271996 0
1.1146 -0.258044 0
1.10128 -0.2565 0
1.0815 -0.244938 0
1.06352 -0.232833 0
1.04543 -0.228066 0
1.02547 -0.218178 0
1.00716 -0.207764 0
1.1146 -0.258044 0
1.09868 -0.243737 0
1.08463 -0.229239 0
1.06352 -0.232833 0
1.04711 -0.220366 0
1.03242 -0.207659 0
1.00716 -0.207764 0
0.990338 -0.196974 0
0.975131 -0.185921 0
1.04543 -0.228066 0
1.02547 -0.218178 0
1.00716 -0.207764 0
0.984578 -0.199493 0
0.964439 -0.19113 0
0.945818 -0.182266 0
0.918655 -0.171552 0
0.898348 -0.164567 0
0.879446 -0.157125 0
1.00716 -0.207764 0
0.990338 -0.196974 0
0.975131 -0.185921 0
0.945818 -0.182266 0
0.928581 -0.173033 0
0.912844 -0.163527 0
0.879446 -0.157125 0
0.861846 -0.149335 0
0.845669 -0.141279 0
1.23227 -0.178917 0
1.20516 -0.185351 0
1.17734 -0.190439 0
1.1561 -0.147495 0
1.12969 -0.153128 0
1.10258 -0.157628 0
1.07306 -0.117085 0
1.0475 -0.121945 0
1.02121 -0.125871 0
1.17734 -0.190439 0
1.1494 -0.19416 0
1.12118 -0.196469 0
1.10258 -0.157628 0
1.07534 -0.160975 0
1.0478 -0.163134 0
1.02121 -0.125871 0
0.99474 -0.128852 0
0.967945 -0.130854 0
1.07306 -0.117085 0
1.0475 -0.121945 0
1.02121 -0.125871 0
0.979061 -0.0882561 0
0.954787 -0.0922826 0
0.929715 -0.0955711 0
0.866808 -0.0612581 0
0.844596 -0.0644101 0
0.821483 -0.0670152 0
1.02121 -0.125871 0
0.99474 -0.128852 0
0.967945 -0.130854 0
0.929715 -0.0955711 0
0.904379 -0.0981095 0
0.878651 -0.0998706 0
0.821483 -0.0670152 0
0.797999 -0.0690679 0
0.774031 -0.0705404 0
1.12118 -0.196469 0
1.09335 -0.197409 0
1.06571 -0.196995 0
1.0478 -0.163134 0
1.02057 -0.16414 0
0.993498 -0.164004 0
0.967945 -0.130854 0
0.941381 -0.131908 0
0.914917 -0.132019 0
1.06571 -0.196995 0
1.03884 -0.19533 0
1.01259 -0.192466 0
0.993498 -0.164004 0
0.967087 -0.162813 0
0.941231 -0.160606 0
0.914917 -0.132019 0
0.889017 -0.131258 0
0.863605 -0.129655 0
0.967945 -0.130854 0
0.941381 -0.131908 0
0.914917 -0.132019 0
0.878651 -0.0998706 0
0.853051 -0.100879 0
0.827481 -0.101136 0
0.774031 -0.0705404 0
0.75007 -0.0714538 0
0.726046 -0.0718037 0
0.914917 -0.132019 0
0.889017 -0.131258 0
0.863605 -0.129655 0
0.827481 -0.101136 0
0.802364 -0.100699 0
0.777658 -0.0995886 0
0.726046 -0.0718037 0
0.702351 -0.0716352 0
0.678974 -0.0709598 0
0.866808 -0.0612581 0
0.844596 -0.0644101 0
0.821483 -0.0670152 0
0.726286 -0.0375135 0
0.707326 -0.0396999 0
0.687375 -0.0415258 0
0.544223 -0.0177561 0
0.529997 -0.0189762 0
0.514801 -0.0200045 0
0.821483 -0.0670152 0
0.797999 -0.0690679 0
0.774031 -0.0705404 0
0.687375 -0.0415258 0
0.666935 -0.0429882 0
0.645914 -0.0440622 0
0.514801 -0.0200045 0
0.499059 -0.020849 0
0.482705 -0.0214855 0
0.544223 -0.0177561 0
0.529997 -0.0189762 0
0.514801 -0.0200045 0
0.306227 -0.00489931 0
0.298364 -0.00527735 0
0.289758 -0.00559033 0
0 0 0
0 0 0
0 0 0
0.514801 -0.0200045 0
0.499059 -0.020849 0
0.482705 -0.0214855 0
0.289758 -0.00559033 0
0.280765 -0.00585497 0
0.271272 -0.00604519 0
0 0 0
0 0 0
0 0 0
0.774031 -0.0705404 0
0.75007 -0.0714538 0
0.726046 -0.0718037 0
0.645914 -0.0440622 0
0.624761 -0.0447657 0
0.603436 -0.0450888 0
0.482705 -0.0214855 0
0.466113 -0.0219333 0
0.449271 -0.0221755 0
0.726046 -0.0718037 0
0.702351 -0.0716352 0
0.678974 -0.0709598 0
0.603436 -0.0450888 0