# vtk DataFile Version 3.0
#This file was generated by the deal.II library on 2025/1/8 at 9:26:01
ASCII
DATASET UNSTRUCTURED_GRID

POINTS 34560 double
1.1 1.1 0
1.03125 1.09531 0
0.9625 1.09063 0
1.09375 1.03125 0
1.02539 1.02686 0
0.957031 1.02246 0
1.0875 0.9625 0
1.01953 0.958398 0
0.951563 0.954297 0
0.9625 1.09063 0
0.89375 1.08594 0
0.825 1.08125 0
0.957031 1.02246 0
0.888672 1.01807 0
0.820312 1.01367 0
0.951563 0.954297 0
0.883594 0.950195 0
0.815625 0.946094 0
1.0875 0.9625 0
1.01953 0.958398 0
0.951563 0.954297 0
1.08125 0.89375 0
1.01367 0.889941 0
0.946094 0.886133 0
1.075 0.825 0
1.00781 0.821484 0
0.940625 0.817969 0
0.951563 0.954297 0
0.883594 0.950195 0
0.815625 0.946094 0
0.946094 0.886133 0
0.878516 0.882324 0
0.810938 0.878516 0
0.940625 0.817969 0
0.873438 0.814453 0
0.80625 0.810937 0
0.825 1.08125 0
0.75625 1.07656 0
0.6875 1.07187 0
0.820312 1.01367 0
0.751953 1.00928 0
0.683594 1.00488 0
0.815625 0.946094 0
0.747656 0.941992 0
0.679688 0.937891 0
0.6875 1.07187 0
0.61875 1.06719 0
0.55 1.0625 0
0.683594 1.00488 0
0.615234 1.00049 0
0.546875 0.996094 0
0.679688 0.937891 0
0.611719 0.933789 0
0.54375 0.929688 0
0.815625 0.946094 0
0.747656 0.941992 0
0.679688 0.937891 0
0.810938 0.878516 0
0.743359 0.874707 0
0.675781 0.870898 0
0.80625 0.810937 0
0.739063 0.807422 0
0.671875 0.803906 0
0.679688 0.937891 0
0.611719 0.933789 0
0.54375 0.929688 0
0.675781 0.870898 0
0.608203 0.86709 0
0.540625 0.863281 0
0.671875 0.803906 0
0.604688 0.800391 0
0.5375 0.796875 0
1.075 0.825 0
1.00781 0.821484 0
0.940625 0.817969 0
1.06875 0.75625 0
1.00195 0.753027 0
0.935156 0.749805 0
1.0625 0.6875 0
0.996094 0.68457 0
0.929688 0.681641 0
0.940625 0.817969 0
0.873438 0.814453 0
0.80625 0.810937 0
0.935156 0.749805 0
0.868359 0.746582 0
0.801563 0.743359 0
0.929688 0.681641 0
0.863281 0.678711 0
0.796875 0.675781 0
1.0625 0.6875 0
0.996094 0.68457 0
0.929688 0.681641 0
1.05625 0.61875 0
0.990234 0.616113 0
0.924219 0.613477 0
1.05 0.55 0
0.984375 0.547656 0
0.91875 0.545313 0
0.929688 0.681641 0
0.863281 0.678711 0
0.796875 0.675781 0
0.924219 0.613477 0
0.858203 0.61084 0
0.792188 0.608203 0
0.91875 0.545313 0
0.853125 0.542969 0
0.7875 0.540625 0
0.80625 0.810937 0
0.739063 0.807422 0
0.671875 0.803906 0
0.801563 0.743359 0
0.734766 0.740137 0
0.667969 0.736914 0
0.796875 0.675781 0
0.730469 0.672852 0
0.664062 0.669922 0
0.671875 0.803906 0
0.604688 0.800391 0
0.5375 0.796875 0
0.667969 0.736914 0
0.601172 0.733691 0
0.534375 0.730469 0
0.664062 0.669922 0
0.597656 0.666992 0
0.53125 0.664062 0
0.796875 0.675781 0
0.730469 0.672852 0
0.664062 0.669922 0
0.792188 0.608203 0
0.726172 0.605566 0
0.660156 0.60293 0
0.7875 0.540625 0
0.721875 0.538281 0
0.65625 0.535937 0
0.664062 0.669922 0
0.597656 0.666992 0
0.53125 0.664062 0
0.660156 0.60293 0
0.594141 0.600293 0
0.528125 0.597656 0
0.65625 0.535937 0
0.590625 0.533594 0
0.525 0.53125 0
0.55 1.0625 0
0.48125 1.05781 0
0.4125 1.05313 0
0.546875 0.996094 0
0.478516 0.991699 0
0.410156 0.987305 0
0.54375 0.929688 0
0.475781 0.925586 0
0.407813 0.921484 0
0.4125 1.05313 0
0.34375 1.04844 0
0.275 1.04375 0
0.410156 0.987305 0
0.341797 0.98291 0
0.273438 0.978516 0
0.407813 0.921484 0
0.339844 0.917383 0
0.271875 0.913281 0
0.54375 0.929688 0
0.475781 0.925586 0
0.407813 0.921484 0
0.540625 0.863281 0
0.473047 0.859473 0
0.405469 0.855664 0
0.5375 0.796875 0
0.470313 0.793359 0
0.403125 0.789844 0
0.407813 0.921484 0
0.339844 0.917383 0
0.271875 0.913281 0
0.405469 0.855664 0
0.337891 0.851855 0
0.270313 0.848047 0
0.403125 0.789844 0
0.335938 0.786328 0
0.26875 0.782813 0
0.275 1.04375 0
0.20625 1.03906 0
0.1375 1.03437 0
0.273438 0.978516 0
0.205078 0.974121 0
0.136719 0.969727 0
0.271875 0.913281 0
0.203906 0.90918 0
0.135938 0.905078 0
0.1375 1.03437 0
0.06875 1.02969 0
0 1.025 0
0.136719 0.969727 0
0.0683594 0.965332 0
0 0.960937 0
0.135938 0.905078 0
0.0679688 0.900977 0
0 0.896875 0
0.271875 0.913281 0
0.203906 0.90918 0
0.135938 0.905078 0
0.270313 0.848047 0
0.202734 0.844238 0
0.135156 0.84043 0
0.26875 0.782813 0
0.201563 0.779297 0
0.134375 0.775781 0
0.135938 0.905078 0
0.0679688 0.900977 0
0 0.896875 0
0.135156 0.84043 0
0.0675781 0.836621 0
0 0.832812 0
0.134375 0.775781 0
0.0671875 0.772266 0
0 0.76875 0
0.5375 0.796875 0
0.470313 0.793359 0
0.403125 0.789844 0
0.534375 0.730469 0
0.467578 0.727246 0
0.400781 0.724023 0
0.53125 0.664062 0
0.464844 0.661133 0
0.398438 0.658203 0
0.403125 0.789844 0
0.335938 0.786328 0
0.26875 0.782813 0
0.400781 0.724023 0
0.333984 0.720801 0
0.267188 0.717578 0
0.398438 0.658203 0
0.332031 0.655273 0
0.265625 0.652344 0
0.53125 0.664062 0
0.464844 0.661133 0
0.398438 0.658203 0
0.528125 0.597656 0
0.462109 0.59502 0
0.396094 0.592383 0
0.525 0.53125 0
0.459375 0.528906 0
0.39375 0.526563 0
0.398438 0.658203 0
0.332031 0.655273 0
0.265625 0.652344 0
0.396094 0.592383 0
0.330078 0.589746 0
0.264062 0.587109 0
0.39375 0.526563 0
0.328125 0.524219 0
0.2625 0.521875 0
0.26875 0.782813 0
0.201563 0.779297 0
0.134375 0.775781 0
0.267188 0.717578 0
0.200391 0.714355 0
0.133594 0.711133 0
0.265625 0.652344 0
0.199219 0.649414 0
0.132812 0.646484 0
0.134375 0.775781 0
0.0671875 0.772266 0
0 0.76875 0
0.133594 0.711133 0
0.0667969 0.70791 0
0 0.704687 0
0.132812 0.646484 0
0.0664062 0.643555 0
0 0.640625 0
0.265625 0.652344 0
0.199219 0.649414 0
0.132812 0.646484 0
0.264062 0.587109 0
0.198047 0.584473 0
0.132031 0.581836 0
0.2625 0.521875 0
0.196875 0.519531 0
0.13125 0.517187 0
0.132812 0.646484 0
0.0664062 0.643555 0
0 0.640625 0
0.132031 0.581836 0
0.0660156 0.579199 0
0 0.576562 0
0.13125 0.517187 0
0.065625 0.514844 0
0 0.5125 0
1.05 0.55 0
0.984375 0.547656 0
0.91875 0.545313 0
1.04375 0.48125 0
0.978516 0.479199 0
0.913281 0.477148 0
1.0375 0.4125 0
0.972656 0.410742 0
0.907813 0.408984 0
0.91875 0.545313 0
0.853125 0.542969 0
0.7875 0.540625 0
0.913281 0.477148 0
0.848047 0.475098 0
0.782813 0.473047 0
0.907813 0.408984 0
0.842969 0.407227 0
0.778125 0.405469 0
1.0375 0.4125 0
0.972656 0.410742 0
0.907813 0.408984 0
1.03125 0.34375 0
0.966797 0.342285 0
0.902344 0.34082 0
1.025 0.275 0
0.960937 0.273828 0
0.896875 0.272656 0
0.907813 0.408984 0
0.842969 0.407227 0
0.778125 0.405469 0
0.902344 0.34082 0
0.837891 0.339355 0
0.773438 0.337891 0
0.896875 0.272656 0
0.832812 0.271484 0
0.76875 0.270313 0
0.7875 0.540625 0
0.721875 0.538281 0
0.65625 0.535937 0
0.782813 0.473047 0
0.717578 0.470996 0
0.652344 0.468945 0
0.778125 0.405469 0
0.713281 0.403711 0
0.648438 0.401953 0
0.65625 0.535937 0
0.590625 0.533594 0
0.525 0.53125 0
0.652344 0.468945 0
0.587109 0.466895 0
0.521875 0.464844 0
0.648438 0.401953 0
0.583594 0.400195 0
0.51875 0.398438 0
0.778125 0.405469 0
0.713281 0.403711 0
0.648438 0.401953 0
0.773438 0.337891 0
0.708984 0.336426 0
0.644531 0.334961 0
0.76875 0.270313 0
0.704687 0.269141 0
0.640625 0.267969 0
0.648438 0.401953 0
0.583594 0.400195 0
0.51875 0.398438 0
0.644531 0.334961 0
0.580078 0.333496 0
0.515625 0.332031 0
0.640625 0.267969 0
0.576562 0.266797 0
0.5125 0.265625 0
1.025 0.275 0
0.960937 0.273828 0
0.896875 0.272656 0
1.01875 0.20625 0
0.955078 0.205371 0
0.891406 0.204492 0
1.0125 0.1375 0
0.949219 0.136914 0
0.885937 0.136328 0
0.896875 0.272656 0
0.832812 0.271484 0
0.76875 0.270313 0
0.891406 0.204492 0
0.827734 0.203613 0
0.764062 0.202734 0
0.885937 0.136328 0
0.822656 0.135742 0
0.759375 0.135156 0
1.0125 0.1375 0
0.949219 0.136914 0
0.885937 0.136328 0
1.00625 0.06875 0
0.943359 0.068457 0
0.880469 0.0681641 0
1 0 0
0.9375 0 0
0.875 0 0
0.885937 0.136328 0
0.822656 0.135742 0
0.759375 0.135156 0
0.880469 0.0681641 0
0.817578 0.0678711 0
0.754687 0.0675781 0
0.875 0 0
0.8125 0 0
0.75 0 0
0.76875 0.270313 0
0.704687 0.269141 0
0.640625 0.267969 0
0.764062 0.202734 0
0.700391 0.201855 0
0.636719 0.200977 0
0.759375 0.135156 0
0.696094 0.13457 0
0.632812 0.133984 0
0.640625 0.267969 0
0.576562 0.266797 0
0.5125 0.265625 0
0.636719 0.200977 0
0.573047 0.200098 0
0.509375 0.199219 0
0.632812 0.133984 0
0.569531 0.133398 0
0.50625 0.132812 0
0.759375 0.135156 0
0.696094 0.13457 0
0.632812 0.133984 0
0.754687 0.0675781 0
0.691797 0.0672852 0
0.628906 0.0669922 0
0.75 0 0
0.6875 0 0
0.625 0 0
0.632812 0.133984 0
0.569531 0.133398 0
0.50625 0.132812 0
0.628906 0.0669922 0
0.566016 0.0666992 0
0.503125 0.0664062 0
0.625 0 0
0.5625 0 0
0.5 0 0
0.525 0.53125 0
0.459375 0.528906 0
0.39375 0.526563 0
0.521875 0.464844 0
0.456641 0.462793 0
0.391406 0.460742 0
0.51875 0.398438 0
0.453906 0.39668 0
0.389063 0.394922 0
0.39375 0.526563 0
0.328125 0.524219 0
0.2625 0.521875 0
0.391406 0.460742 0
0.326172 0.458691 0
0.260938 0.456641 0
0.389063 0.394922 0
0.324219 0.393164 0
0.259375 0.391406 0
0.51875 0.398438 0
0.453906 0.39668 0
0.389063 0.394922 0
0.515625 0.332031 0
0.451172 0.330566 0
0.386719 0.329102 0
0.5125 0.265625 0
0.448437 0.264453 0
0.384375 0.263281 0
0.389063 0.394922 0
0.324219 0.393164 0
0.259375 0.391406 0
0.386719 0.329102 0
0.322266 0.327637 0
0.257812 0.326172 0
0.384375 0.263281 0
0.320312 0.262109 0
0.25625 0.260937 0
0.2625 0.521875 0
0.196875 0.519531 0
0.13125 0.517187 0
0.260938 0.456641 0
0.195703 0.45459 0
0.130469 0.452539 0
0.259375 0.391406 0
0.194531 0.389648 0
0.129688 0.387891 0
0.13125 0.517187 0
0.065625 0.514844 0
0 0.5125 0
0.130469 0.452539 0
0.0652344 0.450488 0
0 0.448437 0
0.129688 0.387891 0
0.0648438 0.386133 0
0 0.384375 0
0.259375 0.391406 0
0.194531 0.389648 0
0.129688 0.387891 0
0.257812 0.326172 0
0.193359 0.324707 0
0.128906 0.323242 0
0.25625 0.260937 0
0.192187 0.259766 0
0.128125 0.258594 0
0.129688 0.387891 0
0.0648438 0.386133 0
0 0.384375 0
0.128906 0.323242 0
0.0644531 0.321777 0
0 0.320312 0
0.128125 0.258594 0
0.0640625 0.257422 0
0 0.25625 0
0.5125 0.265625 0
0.448437 0.264453 0
0.384375 0.263281 0
0.509375 0.199219 0
0.445703 0.19834 0
0.382031 0.197461 0
0.50625 0.132812 0
0.442969 0.132227 0
0.379688 0.131641 0
0.384375 0.263281 0
0.320312 0.262109 0
0.25625 0.260937 0
0.382031 0.197461 0
0.318359 0.196582 0
0.254687 0.195703 0
[...]
POINT_DATA 34560
VECTORS v double
1.2271 -0.177841 0
1.21493 -0.15608 0
1.20363 -0.143893 0
1.19428 -0.162558 0
1.17691 -0.150532 0
1.16676 -0.13846 0
1.15175 -0.14904 0
1.13651 -0.137445 0
1.12508 -0.127396 0
1.20363 -0.143893 0
1.19154 -0.130472 0
1.18466 -0.119017 0
1.16676 -0.13846 0
1.15316 -0.127138 0
1.1457 -0.116496 0
1.12508 -0.127396 0
1.11156 -0.117527 0
1.10298 -0.108416 0
1.15175 -0.14904 0
1.13651 -0.137445 0
1.12508 -0.127396 0
1.10383 -0.133719 0
1.08832 -0.125246 0
1.07693 -0.117182 0
1.05145 -0.121552 0
1.03715 -0.114271 0
1.02532 -0.107359 0
1.12508 -0.127396 0
1.11156 -0.117527 0
1.10298 -0.108416 0
1.07693 -0.117182 0
1.06341 -0.109139 0
1.05446 -0.101659 0
1.02532 -0.107359 0
1.01204 -0.100343 0
1.00263 -0.093819 0
1.18466 -0.119017 0
1.17554 -0.109069 0
1.17023 -0.0997232 0
1.1457 -0.116496 0
1.13549 -0.107213 0
1.12942 -0.0984932 0
1.10298 -0.108416 0
1.0921 -0.100248 0
1.08514 -0.0926017 0
1.17023 -0.0997232 0
1.16333 -0.0921383 0
1.15882 -0.0849003 0
1.12942 -0.0984932 0
1.12155 -0.0912038 0
1.11628 -0.084335 0
1.08514 -0.0926017 0
1.07645 -0.0860942 0
1.07041 -0.0799832 0
1.10298 -0.108416 0
1.0921 -0.100248 0
1.08514 -0.0926017 0
1.05446 -0.101659 0
1.04335 -0.0946263 0
1.03588 -0.0880696 0
1.00263 -0.093819 0
0.991352 -0.0876159 0
0.983361 -0.0818473 0
1.08514 -0.0926017 0
1.07645 -0.0860942 0
1.07041 -0.0799832 0
1.03588 -0.0880696 0
1.02677 -0.0822988 0
1.02021 -0.0769087 0
0.983361 -0.0818473 0
0.973866 -0.0766929 0
0.966797 -0.0719003 0
1.05145 -0.121552 0
1.03715 -0.114271 0
1.02532 -0.107359 0
0.99346 -0.107535 0
0.979631 -0.102075 0
0.96802 -0.0968857 0
0.931724 -0.0965953 0
0.918873 -0.0920083 0
0.907335 -0.0875391 0
1.02532 -0.107359 0
1.01204 -0.100343 0
1.00263 -0.093819 0
0.96802 -0.0968857 0
0.955104 -0.0912638 0
0.945574 -0.0860691 0
0.907335 -0.0875391 0
0.894877 -0.0826849 0
0.885224 -0.0781878 0
0.931724 -0.0965953 0
0.918873 -0.0920083 0
0.907335 -0.0875391 0
0.86514 -0.0840962 0
0.852823 -0.0806649 0
0.841653 -0.0774017 0
0.794937 -0.074154 0
0.783483 -0.0713297 0
0.772616 -0.0685422 0
0.907335 -0.0875391 0
0.894877 -0.0826849 0
0.885224 -0.0781878 0
0.841653 -0.0774017 0
0.829681 -0.0735955 0
0.820115 -0.0701094 0
0.772616 -0.0685422 0
0.761187 -0.0652908 0
0.751728 -0.0623069 0
1.00263 -0.093819 0
0.991352 -0.0876159 0
0.983361 -0.0818473 0
0.945574 -0.0860691 0
0.934405 -0.0808953 0
0.926159 -0.0761084 0
0.885224 -0.0781878 0
0.874185 -0.0736644 0
0.865709 -0.0694913 0
0.983361 -0.0818473 0
0.973866 -0.0766929 0
0.966797 -0.0719003 0
0.926159 -0.0761084 0
0.916561 -0.0716769 0
0.909184 -0.0675768 0
0.865709 -0.0694913 0
0.856029 -0.0655806 0
0.848375 -0.0619805 0
0.885224 -0.0781878 0
0.874185 -0.0736644 0
0.865709 -0.0694913 0
0.820115 -0.0701094 0
0.809357 -0.0664336 0
0.800835 -0.0630689 0
0.751728 -0.0623069 0
0.741268 -0.0591319 0
0.732736 -0.0562388 0
0.865709 -0.0694913 0
0.856029 -0.0655806 0
0.848375 -0.0619805 0
0.800835 -0.0630689 0
0.79126 -0.0597995 0
0.783492 -0.056811 0
0.732736 -0.0562388 0
0.723282 -0.0533955 0
0.715439 -0.0508139 0
1.15882 -0.0849003 0
1.15336 -0.079265 0
1.14925 -0.0739471 0
1.11628 -0.084335 0
1.10993 -0.0788521 0
1.10511 -0.073725 0
1.07041 -0.0799832 0
1.06324 -0.0750247 0
1.05772 -0.0704095 0
1.14925 -0.0739471 0
1.14465 -0.0700155 0
1.14069 -0.0661406 0
1.10511 -0.073725 0
1.09969 -0.0698678 0
1.09505 -0.0660726 0
1.05772 -0.0704095 0
1.05154 -0.0668838 0
1.04624 -0.0633944 0
1.07041 -0.0799832 0
1.06324 -0.0750247 0
1.05772 -0.0704095 0
1.02021 -0.0769087 0
1.01255 -0.0724193 0
1.00652 -0.0682605 0
0.966797 -0.0719003 0
0.958664 -0.0678507 0
0.95214 -0.0641168 0
1.05772 -0.0704095 0
1.05154 -0.0668838 0
1.04624 -0.0633944 0
1.00652 -0.0682605 0
0.999819 -0.0650162 0
0.994011 -0.0617779 0
0.95214 -0.0641168 0
0.944958 -0.0611704 0
0.938669 -0.0582046 0
1.14069 -0.0661406 0
1.13653 -0.0642653 0
1.1326 -0.0568507 0
1.09505 -0.0660726 0
1.09014 -0.0642185 0
1.08553 -0.0568053 0
1.04624 -0.0633944 0
1.04063 -0.0617362 0
1.03536 -0.0545747 0
1.1326 -0.0568507 0
1.12848 -0.0651042 0
1.125 0 0
1.08553 -0.0568053 0
1.08062 -0.0650772 0
1.07666 0 0
1.03536 -0.0545747 0
1.02972 -0.0626883 0
1.02539 0 0
1.04624 -0.0633944 0
1.04063 -0.0617362 0
1.03536 -0.0545747 0
0.994011 -0.0617779 0
0.987873 -0.060281 0
0.982107 -0.0532657 0
0.938669 -0.0582046 0
0.932044 -0.0568787 0
0.925816 -0.050189 0
1.03536 -0.0545747 0
1.02972 -0.0626883 0
1.02539 0 0
0.982107 -0.0532657 0
0.97591 -0.0613161 0
0.971191 0 0
0.925816 -0.050189 0
0.919108 -0.0579869 0
0.914062 0 0
0.966797 -0.0719003 0
0.958664 -0.0678507 0
0.95214 -0.0641168 0
0.909184 -0.0675768 0
0.900824 -0.0640176 0
0.893974 -0.0607496 0
0.848375 -0.0619805 0
0.839815 -0.058813 0
0.832673 -0.0559185 0
0.95214 -0.0641168 0
0.944958 -0.0611704 0
0.938669 -0.0582046 0
0.893974 -0.0607496 0
0.886505 -0.0581188 0
0.87988 -0.055432 0
0.832673 -0.0559185 0
0.824947 -0.053564 0
0.818023 -0.0511317 0
0.848375 -0.0619805 0
0.839815 -0.058813 0
0.832673 -0.0559185 0
0.783492 -0.056811 0
0.774914 -0.054103 0
0.767625 -0.0516412 0
0.715439 -0.0508139 0
0.706866 -0.0484451 0
0.699469 -0.0463039 0
0.832673 -0.0559185 0
0.824947 -0.053564 0
0.818023 -0.0511317 0
0.767625 -0.0516412 0
0.759808 -0.0495965 0
0.752717 -0.0474421 0
0.699469 -0.0463039 0
0.691591 -0.0445092 0
0.684371 -0.0425922 0
0.938669 -0.0582046 0
0.932044 -0.0568787 0
0.925816 -0.050189 0
0.87988 -0.055432 0
0.872939 -0.0542852 0
0.86637 -0.0478461 0
0.818023 -0.0511317 0
0.8108 -0.0501455 0
0.803926 -0.0441124 0
0.925816 -0.050189 0
0.919108 -0.0579869 0
0.914062 0 0
0.86637 -0.0478461 0
0.859303 -0.055489 0
0.854004 0 0
0.803926 -0.0441124 0
0.796538 -0.05136 0
0.791016 0 0
0.818023 -0.0511317 0
0.8108 -0.0501455 0
0.803926 -0.0441124 0
0.752717 -0.0474421 0
0.745362 -0.0466333 0
0.738309 -0.0409552 0
0.684371 -0.0425922 0
0.676917 -0.0419172 0
0.669721 -0.0367176 0
0.803926 -0.0441124 0
0.796538 -0.05136 0
0.791016 0 0
0.738309 -0.0409552 0
0.730745 -0.0478985 0
0.725098 0 0
0.669721 -0.0367176 0
0.662022 -0.0431255 0
0.65625 0 0
0.794937 -0.074154 0
0.783483 -0.0713297 0
0.772616 -0.0685422 0
0.720515 -0.0630245 0
0.709545 -0.0609354 0
0.69913 -0.0589653 0
0.642327 -0.0537694 0
0.632127 -0.0520992 0
0.62214 -0.0504436 0
0.772616 -0.0685422 0
0.761187 -0.0652908 0
0.751728 -0.0623069 0
0.69913 -0.0589653 0
0.688215 -0.0564722 0
0.678979 -0.0542281 0
0.62214 -0.0504436 0
0.611803 -0.0483566 0
0.602833 -0.0464809 0
0.642327 -0.0537694 0
0.632127 -0.0520992 0
0.62214 -0.0504436 0
0.560793 -0.0437589 0
0.550976 -0.0425383 0
0.541458 -0.041427 0
0.47367 -0.0347853 0
0.464677 -0.0338737 0
0.455744 -0.0329851 0
0.62214 -0.0504436 0
0.611803 -0.0483566 0
0.602833 -0.0464809 0
0.541458 -0.041427 0
0.531596 -0.0398797 0
0.522927 -0.03854 0
0.455744 -0.0329851 0
0.446571 -0.0317498 0
0.438368 -0.0306942 0
0.751728 -0.0623069 0
0.741268 -0.0591319 0
0.732736 -0.0562388 0
0.678979 -0.0542281 0
0.668891 -0.0517182 0
0.660472 -0.0494621 0
0.602833 -0.0464809 0
0.593147 -0.0443596 0
0.584893 -0.0424702 0
0.732736 -0.0562388 0
0.723282 -0.0533955 0
0.715439 -0.0508139 0
0.660472 -0.0494621 0
0.651254 -0.0471567 0
0.643461 -0.0450888 0
0.584893 -0.0424702 0
0.575942 -0.0405137 0
0.56825 -0.0387785 0
0.602833 -0.0464809 0
0.593147 -0.0443596 0
0.584893 -0.0424702 0
0.522927 -0.03854 0
0.513637 -0.0369278 0
0.505601 -0.0355305 0
0.438368 -0.0306942 0
0.429643 -0.0294003 0
0.42199 -0.028304 0
0.584893 -0.0424702 0
0.575942 -0.0405137 0
0.56825 -0.0387785 0
0.505601 -0.0355305 0
0.496956 -0.0340124 0
0.489434 -0.032698 0
0.42199 -0.028304 0
0.413807 -0.0270837 0
0.406611 -0.0260528 0
0.47367 -0.0347853 0
0.464677 -0.0338737 0
0.455744 -0.0329851 0
0.38754 -0.0254595 0
0.378604 -0.0248237 0
0.369984 -0.0243147 0
0.280954 -0.0165651 0
0.273803 -0.0161605 0
0.266677 -0.0158021 0
0.455744 -0.0329851 0
0.446571 -0.0317498 0
0.438368 -0.0306942 0
0.369984 -0.0243147 0
0.361062 -0.0234619 0
0.353054 -0.0227996 0
0.266677 -0.0158021 0
0.259374 -0.0152315 0
0.252722 -0.0148107 0
0.280954 -0.0165651 0
0.273803 -0.0161605 0
0.266677 -0.0158021 0
0.208116 -0.006856 0
0.199269 -0.00659299 0
0.190956 -0.00650103 0
0 0 0
0 0 0
0 0 0
0.266677 -0.0158021 0
0.259374 -0.0152315 0
0.252722 -0.0148107 0
0.190956 -0.00650103 0
0.182274 -0.00623747 0
0.174532 -0.00618756 0
0 0 0
0 0 0
0 0 0
0.438368 -0.0306942 0
0.429643 -0.0294003 0
0.42199 -0.028304 0
0.353054 -0.0227996 0
0.344563 -0.0218998 0
0.337069 -0.0211941 0
0.252722 -0.0148107 0
0.2457 -0.0141984 0
0.239459 -0.0137467 0
0.42199 -0.028304 0
0.413807 -0.0270837 0
0.406611 -0.0260528 0
0.337069 -0.0211941 0
0.329089 -0.0203323 0
0.322027 -0.0196521 0
0.239459 -0.0137467 0
0.232828 -0.0131621 0
0.226927 -0.0127284 0
0.252722 -0.0148107 0
0.2457 -0.0141984 0
0.239459 -0.0137467 0
0.174532 -0.00618756 0
0.166317 -0.00590487 0
0.159049 -0.00582168 0
0 0 0
0 0 0
0 0 0
0.239459 -0.0137467 0
0.232828 -0.0131621 0
0.226927 -0.0127284 0
0.159049 -0.00582168 0
0.151328 -0.00555309 0
0.144472 -0.0054652 0
0 0 0
0 0 0
0 0 0
0.715439 -0.0508139 0
0.706866 -0.0484451 0
0.699469 -0.0463039 0
0.643461 -0.0450888 0
0.635024 -0.0431269 0
0.627641 -0.0413685 0
0.56825 -0.0387785 0
0.559984 -0.0371099 0
0.552667 -0.0356288 0
0.699469 -0.0463039 0
0.691591 -0.0445092 0
0.684371 -0.0425922 0
0.627641 -0.0413685 0
0.619835 -0.0398587 0
0.612606 -0.038207 0
0.552667 -0.0356288 0
0.544971 -0.0343467 0
0.537784 -0.0329262 0
0.56825 -0.0387785 0
0.559984 -0.0371099 0
0.552667 -0.0356288 0
0.489434 -0.032698 0
0.481402 -0.0313799 0
0.474227 -0.0302308 0
0.406611 -0.0260528 0
0.398961 -0.0249962 0
0.392081 -0.0240958 0
0.552667 -0.0356288 0
0.544971 -0.0343467 0
0.537784 -0.0329262 0
0.474227 -0.0302308 0
0.466718 -0.0292032 0
0.45966 -0.0280374 0
0.392081 -0.0240958 0
0.3849 -0.0232831 0
0.37812 -0.0223581 0
0.684371 -0.0425922 0
0.676917 -0.0419172 0
0.669721 -0.0367176 0
0.612606 -0.038207 0
0.605185 -0.0376836 0
0.597961 -0.0329312 0
0.537784 -0.0329262 0
0.530437 -0.03251 0
0.523232 -0.0283231 0
0.669721 -0.0367176 0
0.662022 -0.0431255 0
0.65625 0 0
0.597961 -0.0329312 0
0.590254 -0.0388731 0
0.584473 0 0
0.523232 -0.0283231 0
0.515573 -0.0335757 0
0.509766 0 0
0.537784 -0.0329262 0
0.530437 -0.03251 0
0.523232 -0.0283231 0
0.45966 -0.0280374 0
0.452479 -0.0277326 0
0.445379 -0.0240835 0
0.37812 -0.0223581 0
0.371243 -0.022147 0
0.36439 -0.0191812 0
0.523232 -0.0283231 0
0.515573 -0.0335757 0
0.509766 0 0
0.445379 -0.0240835 0
0.437864 -0.0286902 0
0.432129 0 0
0.36439 -0.0191812 0
0.357176 -0.0229443 0
0.351562 0 0
0.406611 -0.0260528 0
0.398961 -0.0249962 0
0.392081 -0.0240958 0
0.322027 -0.0196521 0
0.314548 -0.0188992 0
0.307793 -0.0182943 0
0.226927 -0.0127284 0
0.220684 -0.0122201 0
0.215032 -0.0118361 0
0.392081 -0.0240958 0
0.3849 -0.0232831 0
0.37812 -0.0223581 0
0.307793 -0.0182943 0
0.300758 -0.0177176 0
0.294114 -0.0170589 0
0.215032 -0.0118361 0
0.209139 -0.0114551 0
0.203583 -0.0110342 0
0.226927 -0.0127284 0
0.220684 -0.0122201 0
0.215032 -0.0118361 0
0.144472 -0.0054652 0
0.137231 -0.00523673 0
0.130674 -0.00516029 0
0 0 0
0 0 0
0 0 0
0.215032 -0.0118361 0
0.209139 -0.0114551 0
0.203583 -0.0110342 0
0.130674 -0.00516029 0
0.123853 -0.00501049 0
0.117431 -0.00491204 0
0 0 0
0 0 0
0 0 0
0.37812 -0.0223581 0
0.371243 -0.022147 0
0.36439 -0.0191812 0
0.294114 -0.0170589 0
0.287385 -0.0169307 0
0.280669 -0.0146256 0
0.203583 -0.0110342 0
0.197952 -0.0109798 0
0.192312 -0.00947118 0
0.36439 -0.0191812 0
0.357176 -0.0229443 0
0.351562 0 0
0.280669 -0.0146256 0
0.273639 -0.0175373 0
0.268066 0 0
0.192312 -0.00947118 0
0.186443 -0.0114375 0
0.181641 0 0
0.203583 -0.0110342 0
0.197952 -0.0109798 0
0.192312 -0.00947118 0
0.117431 -0.00491204 0
0.110907 -0.00495584 0
0.104475 -0.00433979 0
0 0 0
0 0 0
0 0 0
0.192312 -0.00947118 0
0.186443 -0.0114375 0
0.181641 0 0
0.104475 -0.00433979 0
0.0977694 -0.00528006 0
0.0922852 0 0
0 0 0
0 0 0
0 0 0
1.51122 -0.00142326 0
1.51574 -0.0401153 0
1.50476 -0.077015 0
1.42342 -0.00109823 0
1.42787 -0.0362038 0
1.41956 -0.0703113 0
1.33571 -0.000995156 0
1.34032 -0.0300037 0
1.33553 -0.0582168 0
1.50476 -0.077015 0
1.501 -0.112883 0
1.4736 -0.142794 0
1.41956 -0.0703113 0
1.41754 -0.10152 0
1.39641 -0.130734 0
1.33553 -0.0582168 0
1.33522 -0.0847653 0
1.32036 -0.109166 0
1.33571 -0.000995156 0
1.34032 -0.0300037 0
1.33553 -0.0582168 0
1.256 -0.00106933 0
1.26066 -0.0238515 0
1.25729 -0.046125 0
1.17529 -0.000910213 0
1.17976 -0.0209419 0
1.1776 -0.0405174 0
1.33553 -0.0582168 0
1.33522 -0.0847653 0
1.32036 -0.109166 0
1.25729 -0.046125 0
1.25789 -0.0672967 0
1.24634 -0.0872616 0
1.1776 -0.0405174 0
1.1787 -0.059166 0
1.17005 -0.0767241 0
1.4736 -0.142794 0
1.45778 -0.169147 0
1.42571 -0.188182 0
1.39641 -0.130734 0
1.38457 -0.153046 0
1.35922 -0.173095 0
1.32036 -0.109166 0
1.31231 -0.129113 0
1.29304 -0.146398 0
1.42571 -0.188182 0
1.40221 -0.202853 0
1.37289 -0.211499 0
1.35922 -0.173095 0
1.34062 -0.185228 0
1.3167 -0.195426 0
1.29304 -0.146398 0
1.27918 -0.158272 0
1.25972 -0.167776 0
1.32036 -0.109166 0
1.31231 -0.129113 0
1.29304 -0.146398 0
1.24634 -0.0872616 0
1.24048 -0.104031 0
1.22497 -0.119241 0
1.17005 -0.0767241 0
1.16594 -0.0916122 0
1.15385 -0.105085 0
1.29304 -0.146398 0
1.27918 -0.158272 0
1.25972 -0.167776 0
1.22497 -0.119241 0
1.21404 -0.130252 0
1.19787 -0.139745 0
1.15385 -0.105085 0
1.14549 -0.115058 0
1.13237 -0.12364 0
1.17529 -0.000910213 0
1.17976 -0.0209419 0
1.1776 -0.0405174 0
1.098 -0.000972745 0
1.10253 -0.0169744 0
1.10117 -0.0326478 0
1.01908 -0.000830816 0
1.02336 -0.0148668 0
1.0225 -0.0286113 0
1.1776 -0.0405174 0
1.1787 -0.059166 0
1.17005 -0.0767241 0
1.10117 -0.0326478 0
1.10273 -0.0477094 0
1.09595 -0.0620024 0
1.0225 -0.0286113 0
1.02417 -0.0418392 0
1.01889 -0.0544047 0
1.01908 -0.000830816 0
1.02336 -0.0148668 0
1.0225 -0.0286113 0
0.941603 -0.000845954 0
0.945811 -0.0121832 0
0.945284 -0.0232958 0
0.862127 -0.00071457 0
0.866036 -0.0105479 0
0.865643 -0.0201835 0
1.0225 -0.0286113 0
1.02417 -0.0418392 0
1.01889 -0.0544047 0
0.945284 -0.0232958 0
0.947095 -0.0340599 0
0.942794 -0.0443132 0
0.865643 -0.0201835 0
0.867344 -0.0295299 0
0.863789 -0.0384385 0
1.17005 -0.0767241 0
1.16594 -0.0916122 0
1.15385 -0.105085 0
1.09595 -0.0620024 0
1.09301 -0.0744752 0
1.08312 -0.0859136 0
1.01889 -0.0544047 0
1.01681 -0.0654109 0
1.00885 -0.0755254 0
1.15385 -0.105085 0
1.14549 -0.115058 0
1.13237 -0.12364 0
1.08312 -0.0859136 0
1.07644 -0.0948304 0
1.06536 -0.102674 0
1.00885 -0.0755254 0
1.00359 -0.0834859 0
0.994412 -0.090511 0
1.01889 -0.0544047 0
1.01681 -0.0654109 0
1.00885 -0.0755254 0
0.942794 -0.0443132 0
0.941289 -0.0534824 0
0.934568 -0.0619493 0
0.863789 -0.0384385 0
0.862628 -0.0464291 0
0.856951 -0.0538165 0
1.00885 -0.0755254 0
1.00359 -0.0834859 0
0.994412 -0.090511 0
0.934568 -0.0619493 0
0.930209 -0.0688658 0
0.922249 -0.0750224 0
0.856951 -0.0538165 0
0.853306 -0.0598907 0
0.846434 -0.0653052 0
1.37289 -0.211499 0
1.34744 -0.215918 0
1.3239 -0.216687 0
1.3167 -0.195426 0
1.29576 -0.198835 0
1.27592 -0.200902 0
1.25972 -0.167776 0
1.24318 -0.172313 0
1.22604 -0.17518 0
1.3239 -0.216687 0
1.30064 -0.213741 0
1.28312 -0.209275 0
1.27592 -0.200902 0
1.25606 -0.19807 0
1.24094 -0.194489 0
1.22604 -0.17518 0
1.20958 -0.174141 0
1.19586 -0.172173 0
1.25972 -0.167776 0
1.24318 -0.172313 0
1.22604 -0.17518 0
1.19787 -0.139745 0
1.18431 -0.145075 0
1.16961 -0.149197 0
1.13237 -0.12364 0
1.12155 -0.128735 0
1.10915 -0.132704 0
1.22604 -0.17518 0
1.20958 -0.174141 0
1.19586 -0.172173 0
1.16961 -0.149197 0
1.15567 -0.149819 0
1.14355 -0.149652 0
1.10915 -0.132704 0
1.09761 -0.133706 0
1.08699 -0.133946 0
1.28312 -0.209275 0
1.26406 -0.201903 0
1.2515 -0.194328 0
1.24094 -0.194489 0
1.22401 -0.187695 0
1.21356 -0.180678 0
1.19586 -0.172173 0
1.18122 -0.16742 0
1.17118 -0.162353 0
1.2515 -0.194328 0
1.23801 -0.184322 0
1.2271 -0.177841 0
1.21356 -0.180678 0
1.20023 -0.171623 0
1.19428 -0.162558 0
1.17118 -0.162353 0
1.15956 -0.155366 0
1.15175 -0.14904 0
1.19586 -0.172173 0
1.18122 -0.16742 0
1.17118 -0.162353 0
1.14355 -0.149652 0
1.13077 -0.146854 0
1.12166 -0.143688 0
1.08699 -0.133946 0
1.07607 -0.131922 0
1.06772 -0.129509 0
1.17118 -0.162353 0
1.15956 -0.155366 0
1.15175 -0.14904 0
1.12166 -0.143688 0
1.11111 -0.138794 0
1.10383 -0.133719 0
1.06772 -0.129509 0
1.05843 -0.125528 0
1.05145 -0.121552 0
1.13237 -0.12364 0
1.12155 -0.128735 0
1.10915 -0.132704 0
1.06536 -0.102674 0
1.05635 -0.107842 0
1.04558 -0.112082 0
0.994412 -0.090511 0
0.98704 -0.0952525 0
0.977834 -0.0991682 0
1.10915 -0.132704 0
1.09761 -0.133706 0
1.08699 -0.133946 0
1.04558 -0.112082 0
1.03569 -0.113899 0
1.02618 -0.115037 0
0.977834 -0.0991682 0
0.969499 -0.101011 0
0.961104 -0.102229 0
0.994412 -0.090511 0
0.98704 -0.0952525 0
0.977834 -0.0991682 0
0.922249 -0.0750224 0
0.915921 -0.0794621 0
0.90773 -0.0832048 0
0.846434 -0.0653052 0
0.841007 -0.0692671 0
0.833763 -0.0726125 0
0.977834 -0.0991682 0
0.969499 -0.101011 0
0.961104 -0.102229 0
0.90773 -0.0832048 0
0.900395 -0.0853177 0
0.892721 -0.0868761 0
0.833763 -0.0726125 0
0.82733 -0.0745781 0
0.820357 -0.0760399 0
1.08699 -0.133946 0
1.07607 -0.131922 0
1.06772 -0.129509 0
1.02618 -0.115037 0
1.01656 -0.114226 0
1.00882 -0.113011 0
0.961104 -0.102229 0
0.952759 -0.101767 0
0.945689 -0.100916 0
1.06772 -0.129509 0
1.05843 -0.125528 0
1.05145 -0.121552 0
1.00882 -0.113011 0
1.00044 -0.11041 0
0.99346 -0.107535 0
0.945689 -0.100916 0
0.938194 -0.0988416 0
0.931724 -0.0965953 0
0.961104 -0.102229 0
0.952759 -0.101767 0
0.945689 -0.100916 0
0.892721 -0.0868761 0
0.885205 -0.0870546 0
0.878525 -0.0868562 0
0.820357 -0.0760399 0
0.813609 -0.076329 0
0.807357 -0.076267 0
0.945689 -0.100916 0
0.938194 -0.0988416 0
0.931724 -0.0965953 0
0.878525 -0.0868562 0
0.871633 -0.0856334 0
0.86514 -0.0840962 0
0.807357 -0.076267 0
0.800989 -0.0753153 0
0.794937 -0.074154 0
0.862127 -0.00071457 0
0.866036 -0.0105479 0
0.865643 -0.0201835 0
0.78298 -0.000693268 0
0.786695 -0.00860371 0
0.786326 -0.0163555 0
0.701344 -0.000562714 0
0.704694 -0.00724967 0
0.704216 -0.0137984 0
0.865643 -0.0201835 0
0.867344 -0.0295299 0
0.863789 -0.0384385 0
0.786326 -0.0163555 0
0.787939 -0.023914 0
0.784803 -0.0311199 0
0.704216 -0.0137984 0
0.705567 -0.0201929 0
0.702696 -0.0262846 0
0.701344 -0.000562714 0
0.704694 -0.00724967 0
0.704216 -0.0137984 0
0.619991 -0.000515336 0
0.623057 -0.00575139 0
0.622394 -0.0108742 0
0.533111 -0.000380638 0
0.535692 -0.00453043 0
0.534753 -0.00858435 0
0.704216 -0.0137984 0
0.705567 -0.0201929 0
0.702696 -0.0262846 0
0.622394 -0.0108742 0
0.623501 -0.0158996 0
0.620672 -0.0206742 0
0.534753 -0.00858435 0
0.535471 -0.0125738 0
0.532604 -0.0163494 0
0.863789 -0.0384385 0
0.862628 -0.0464291 0
0.856951 -0.0538165 0
0.784803 -0.0311199 0
0.783824 -0.0376863 0
0.77875 -0.0437608 0
0.702696 -0.0262846 0
0.701735 -0.0318534 0
0.697124 -0.0369983 0
0.856951 -0.0538165 0
0.853306 -0.0598907 0
0.846434 -0.0653052 0
0.77875 -0.0437608 0
0.775506 -0.0488979 0
0.769261 -0.0534866 0
0.697124 -0.0369983 0
0.694136 -0.0413748 0
0.688414 -0.0452743 0
0.702696 -0.0262846 0
0.701735 -0.0318534 0
0.697124 -0.0369983 0
0.620672 -0.0206742 0
0.619618 -0.0251027 0
0.615163 -0.0291769 0
0.532604 -0.0163494 0
0.531357 -0.0198681 0
0.527009 -0.0230836 0
0.697124 -0.0369983 0
0.694136 -0.0413748 0
0.688414 -0.0452743 0
0.615163 -0.0291769 0
0.612212 -0.0327288 0
0.60667 -0.0358765 0
0.527009 -0.0230836 0
0.524035 -0.0259144 0
0.518667 -0.0283966 0
0.533111 -0.000380638 0
0.535692 -0.00453043 0
0.534753 -0.00858435 0
0.45277 -0.000313127 0
0.455069 -0.00326465 0
0.453749 -0.00613853 0
0.340803 -0.000177542 0
0.342332 -0.00213874 0
0.340821 -0.00403636 0
0.534753 -0.00858435 0
0.535471 -0.0125738 0
0.532604 -0.0163494 0
0.453749 -0.00613853 0
0.454107 -0.00900928 0
0.450948 -0.0116975 0
0.340821 -0.00403636 0
0.340715 -0.0058968 0
0.337731 -0.00761661 0
0.340803 -0.000177542 0
0.342332 -0.00213874 0
0.340821 -0.00403636 0
0.293203 -8.3139e-05 0
0.294651 -0.000985209 0
0.292297 -0.00182363 0
0 0 0
0 0 0
0 0 0
0.340821 -0.00403636 0
0.340715 -0.0058968 0