# vtk DataFile Version 3.0
#This file was generated by the deal.II library on 2025/1/8 at 9:10:52
ASCII
DATASET UNSTRUCTURED_GRID

POINTS 8640 double
1.1 1.1 0
0.9625 1.09063 0
0.825 1.08125 0
1.0875 0.9625 0
0.951563 0.954297 0
0.815625 0.946094 0
1.075 0.825 0
0.940625 0.817969 0
0.80625 0.810937 0
0.825 1.08125 0
0.6875 1.07187 0
0.55 1.0625 0
0.815625 0.946094 0
0.679688 0.937891 0
0.54375 0.929688 0
0.80625 0.810937 0
0.671875 0.803906 0
0.5375 0.796875 0
1.075 0.825 0
0.940625 0.817969 0
0.80625 0.810937 0
1.0625 0.6875 0
0.929688 0.681641 0
0.796875 0.675781 0
1.05 0.55 0
0.91875 0.545313 0
0.7875 0.540625 0
0.80625 0.810937 0
0.671875 0.803906 0
0.5375 0.796875 0
0.796875 0.675781 0
0.664062 0.669922 0
0.53125 0.664062 0
0.7875 0.540625 0
0.65625 0.535937 0
0.525 0.53125 0
0.55 1.0625 0
0.4125 1.05313 0
0.275 1.04375 0
0.54375 0.929688 0
0.407813 0.921484 0
0.271875 0.913281 0
0.5375 0.796875 0
0.403125 0.789844 0
0.26875 0.782813 0
0.275 1.04375 0
0.1375 1.03437 0
0 1.025 0
0.271875 0.913281 0
0.135938 0.905078 0
0 0.896875 0
0.26875 0.782813 0
0.134375 0.775781 0
0 0.76875 0
0.5375 0.796875 0
0.403125 0.789844 0
0.26875 0.782813 0
0.53125 0.664062 0
0.398438 0.658203 0
0.265625 0.652344 0
0.525 0.53125 0
0.39375 0.526563 0
0.2625 0.521875 0
0.26875 0.782813 0
0.134375 0.775781 0
0 0.76875 0
0.265625 0.652344 0
0.132812 0.646484 0
0 0.640625 0
0.2625 0.521875 0
0.13125 0.517187 0
0 0.5125 0
1.05 0.55 0
0.91875 0.545313 0
0.7875 0.540625 0
1.0375 0.4125 0
0.907812 0.408984 0
0.778125 0.405469 0
1.025 0.275 0
0.896875 0.272656 0
0.76875 0.270313 0
0.7875 0.540625 0
0.65625 0.535937 0
0.525 0.53125 0
0.778125 0.405469 0
0.648438 0.401953 0
0.51875 0.398438 0
0.76875 0.270313 0
0.640625 0.267969 0
0.5125 0.265625 0
1.025 0.275 0
0.896875 0.272656 0
0.76875 0.270313 0
1.0125 0.1375 0
0.885937 0.136328 0
0.759375 0.135156 0
1 0 0
0.875 0 0
0.75 0 0
0.76875 0.270313 0
0.640625 0.267969 0
0.5125 0.265625 0
0.759375 0.135156 0
0.632812 0.133984 0
0.50625 0.132812 0
0.75 0 0
0.625 0 0
0.5 0 0
0.525 0.53125 0
0.39375 0.526563 0
0.2625 0.521875 0
0.51875 0.398438 0
0.389062 0.394922 0
0.259375 0.391406 0
0.5125 0.265625 0
0.384375 0.263281 0
0.25625 0.260937 0
0.2625 0.521875 0
0.13125 0.517187 0
0 0.5125 0
0.259375 0.391406 0
0.129688 0.387891 0
0 0.384375 0
0.25625 0.260937 0
0.128125 0.258594 0
0 0.25625 0
0.5125 0.265625 0
0.384375 0.263281 0
0.25625 0.260937 0
0.50625 0.132812 0
0.379687 0.131641 0
0.253125 0.130469 0
0.5 0 0
0.375 0 0
0.25 0 0
0.25625 0.260937 0
0.128125 0.258594 0
0 0.25625 0
0.253125 0.130469 0
0.126562 0.129297 0
0 0.128125 0
0.25 0 0
0.125 0 0
0 0 0
2 1 0
1.8875 1.0125 0
1.775 1.025 0
2 0.875 0
1.88594 0.885938 0
1.77188 0.896875 0
2 0.75 0
1.88437 0.759375 0
1.76875 0.76875 0
1.775 1.025 0
1.6625 1.0375 0
1.55 1.05 0
1.77188 0.896875 0
1.65781 0.907813 0
1.54375 0.91875 0
1.76875 0.76875 0
1.65313 0.778125 0
1.5375 0.7875 0
2 0.75 0
1.88437 0.759375 0
1.76875 0.76875 0
2 0.625 0
1.88281 0.632812 0
1.76562 0.640625 0
2 0.5 0
1.88125 0.50625 0
1.7625 0.5125 0
1.76875 0.76875 0
1.65313 0.778125 0
1.5375 0.7875 0
1.76562 0.640625 0
1.64844 0.648438 0
1.53125 0.65625 0
1.7625 0.5125 0
1.64375 0.51875 0
1.525 0.525 0
1.55 1.05 0
1.4375 1.0625 0
1.325 1.075 0
1.54375 0.91875 0
1.42969 0.929688 0
1.31563 0.940625 0
1.5375 0.7875 0
1.42188 0.796875 0
1.30625 0.80625 0
1.325 1.075 0
1.2125 1.0875 0
1.1 1.1 0
1.31563 0.940625 0
1.20156 0.951563 0
1.0875 0.9625 0
1.30625 0.80625 0
1.19063 0.815625 0
1.075 0.825 0
1.5375 0.7875 0
1.42188 0.796875 0
1.30625 0.80625 0
1.53125 0.65625 0
1.41406 0.664062 0
1.29688 0.671875 0
1.525 0.525 0
1.40625 0.53125 0
1.2875 0.5375 0
1.30625 0.80625 0
1.19063 0.815625 0
1.075 0.825 0
1.29688 0.671875 0
1.17969 0.679688 0
1.0625 0.6875 0
1.2875 0.5375 0
1.16875 0.54375 0
1.05 0.55 0
2 0.5 0
1.88125 0.50625 0
1.7625 0.5125 0
2 0.375 0
1.87969 0.379687 0
1.75938 0.384375 0
2 0.25 0
1.87813 0.253125 0
1.75625 0.25625 0
1.7625 0.5125 0
1.64375 0.51875 0
1.525 0.525 0
1.75938 0.384375 0
1.63906 0.389063 0
1.51875 0.39375 0
1.75625 0.25625 0
1.63438 0.259375 0
1.5125 0.2625 0
2 0.25 0
1.87813 0.253125 0
1.75625 0.25625 0
2 0.125 0
1.87656 0.126562 0
1.75313 0.128125 0
2 0 0
1.875 0 0
1.75 0 0
1.75625 0.25625 0
1.63438 0.259375 0
1.5125 0.2625 0
1.75313 0.128125 0
1.62969 0.129688 0
1.50625 0.13125 0
1.75 0 0
1.625 0 0
1.5 0 0
1.525 0.525 0
1.40625 0.53125 0
1.2875 0.5375 0
1.51875 0.39375 0
1.39844 0.398438 0
1.27813 0.403125 0
1.5125 0.2625 0
1.39062 0.265625 0
1.26875 0.26875 0
1.2875 0.5375 0
1.16875 0.54375 0
1.05 0.55 0
1.27813 0.403125 0
1.15781 0.407813 0
1.0375 0.4125 0
1.26875 0.26875 0
1.14688 0.271875 0
1.025 0.275 0
1.5125 0.2625 0
1.39062 0.265625 0
1.26875 0.26875 0
1.50625 0.13125 0
1.38281 0.132812 0
1.25937 0.134375 0
1.5 0 0
1.375 0 0
1.25 0 0
1.26875 0.26875 0
1.14688 0.271875 0
1.025 0.275 0
1.25937 0.134375 0
1.13594 0.135938 0
1.0125 0.1375 0
1.25 0 0
1.125 0 0
1 0 0
1 2 0
0.875 2.00625 0
0.75 2.0125 0
1.0125 1.8875 0
0.885938 1.8918 0
0.759375 1.89609 0
1.025 1.775 0
0.896875 1.77734 0
0.76875 1.77969 0
0.75 2.0125 0
0.625 2.01875 0
0.5 2.025 0
0.759375 1.89609 0
0.632812 1.90039 0
0.50625 1.90469 0
0.76875 1.77969 0
0.640625 1.78203 0
0.5125 1.78437 0
1.025 1.775 0
0.896875 1.77734 0
0.76875 1.77969 0
1.0375 1.6625 0
0.907813 1.66289 0
0.778125 1.66328 0
1.05 1.55 0
0.91875 1.54844 0
0.7875 1.54688 0
0.76875 1.77969 0
0.640625 1.78203 0
0.5125 1.78437 0
0.778125 1.66328 0
0.648438 1.66367 0
0.51875 1.66406 0
0.7875 1.54688 0
0.65625 1.54531 0
0.525 1.54375 0
0.5 2.025 0
0.375 2.03125 0
0.25 2.0375 0
0.50625 1.90469 0
0.379687 1.90898 0
0.253125 1.91328 0
0.5125 1.78437 0
0.384375 1.78672 0
0.25625 1.78906 0
0.25 2.0375 0
0.125 2.04375 0
0 2.05 0
0.253125 1.91328 0
0.126562 1.91758 0
0 1.92187 0
0.25625 1.78906 0
0.128125 1.79141 0
0 1.79375 0
0.5125 1.78437 0
0.384375 1.78672 0
0.25625 1.78906 0
0.51875 1.66406 0
0.389062 1.66445 0
0.259375 1.66484 0
0.525 1.54375 0
0.39375 1.54219 0
0.2625 1.54062 0
0.25625 1.78906 0
0.128125 1.79141 0
0 1.79375 0
0.259375 1.66484 0
0.129688 1.66523 0
0 1.66562 0
0.2625 1.54062 0
0.13125 1.53906 0
0 1.5375 0
1.05 1.55 0
0.91875 1.54844 0
0.7875 1.54688 0
1.0625 1.4375 0
0.929688 1.43398 0
0.796875 1.43047 0
1.075 1.325 0
0.940625 1.31953 0
0.80625 1.31406 0
0.7875 1.54688 0
0.65625 1.54531 0
0.525 1.54375 0
0.796875 1.43047 0
0.664062 1.42695 0
0.53125 1.42344 0
0.80625 1.31406 0
0.671875 1.30859 0
0.5375 1.30312 0
1.075 1.325 0
0.940625 1.31953 0
0.80625 1.31406 0
1.0875 1.2125 0
0.951563 1.20508 0
0.815625 1.19766 0
1.1 1.1 0
0.9625 1.09063 0
0.825 1.08125 0
0.80625 1.31406 0
0.671875 1.30859 0
0.5375 1.30312 0
0.815625 1.19766 0
0.679688 1.19023 0
0.54375 1.18281 0
0.825 1.08125 0
0.6875 1.07187 0
0.55 1.0625 0
0.525 1.54375 0
0.39375 1.54219 0
0.2625 1.54062 0
0.53125 1.42344 0
0.398438 1.41992 0
0.265625 1.41641 0
0.5375 1.30312 0
0.403125 1.29766 0
0.26875 1.29219 0
0.2625 1.54062 0
0.13125 1.53906 0
0 1.5375 0
0.265625 1.41641 0
0.132812 1.41289 0
0 1.40937 0
0.26875 1.29219 0
0.134375 1.28672 0
0 1.28125 0
0.5375 1.30312 0
0.403125 1.29766 0
0.26875 1.29219 0
0.54375 1.18281 0
0.407813 1.17539 0
0.271875 1.16797 0
0.55 1.0625 0
0.4125 1.05313 0
0.275 1.04375 0
0.26875 1.29219 0
0.134375 1.28672 0
0 1.28125 0
0.271875 1.16797 0
0.135938 1.16055 0
0 1.15312 0
0.275 1.04375 0
0.1375 1.03437 0
0 1.025 0
2.9 1.1 0
2.7875 1.0875 0
2.675 1.075 0
2.9125 0.9625 0
2.79844 0.951563 0
2.68438 0.940625 0
2.925 0.825 0
2.80938 0.815625 0
2.69375 0.80625 0
2.675 1.075 0
2.5625 1.0625 0
2.45 1.05 0
2.68438 0.940625 0
2.57031 0.929688 0
2.45625 0.91875 0
2.69375 0.80625 0
2.57812 0.796875 0
2.4625 0.7875 0
2.925 0.825 0
2.80938 0.815625 0
2.69375 0.80625 0
2.9375 0.6875 0
2.82031 0.679688 0
2.70312 0.671875 0
2.95 0.55 0
2.83125 0.54375 0
2.7125 0.5375 0
2.69375 0.80625 0
2.57812 0.796875 0
2.4625 0.7875 0
2.70312 0.671875 0
2.58594 0.664062 0
2.46875 0.65625 0
2.7125 0.5375 0
2.59375 0.53125 0
2.475 0.525 0
2.45 1.05 0
2.3375 1.0375 0
2.225 1.025 0
2.45625 0.91875 0
2.34219 0.907813 0
2.22813 0.896875 0
2.4625 0.7875 0
2.34688 0.778125 0
2.23125 0.76875 0
2.225 1.025 0
2.1125 1.0125 0
2 1 0
2.22813 0.896875 0
2.11406 0.885938 0
2 0.875 0
2.23125 0.76875 0
2.11563 0.759375 0
2 0.75 0
2.4625 0.7875 0
2.34688 0.778125 0
2.23125 0.76875 0
2.46875 0.65625 0
2.35156 0.648438 0
2.23438 0.640625 0
2.475 0.525 0
2.35625 0.51875 0
2.2375 0.5125 0
2.23125 0.76875 0
2.11563 0.759375 0
2 0.75 0
2.23438 0.640625 0
2.11719 0.632812 0
2 0.625 0
2.2375 0.5125 0
2.11875 0.50625 0
2 0.5 0
2.95 0.55 0
2.83125 0.54375 0
2.7125 0.5375 0
2.9625 0.4125 0
2.84219 0.407813 0
2.72188 0.403125 0
2.975 0.275 0
2.85313 0.271875 0
2.73125 0.26875 0
2.7125 0.5375 0
2.59375 0.53125 0
2.475 0.525 0
2.72188 0.403125 0
2.60156 0.398438 0
2.48125 0.39375 0
2.73125 0.26875 0
2.60938 0.265625 0
2.4875 0.2625 0
2.975 0.275 0
2.85313 0.271875 0
2.73125 0.26875 0
2.9875 0.1375 0
2.86406 0.135938 0
2.74063 0.134375 0
3 0 0
2.875 0 0
2.75 0 0
2.73125 0.26875 0
2.60938 0.265625 0
2.4875 0.2625 0
2.74063 0.134375 0
2.61719 0.132812 0
2.49375 0.13125 0
2.75 0 0
2.625 0 0
2.5 0 0
2.475 0.525 0
2.35625 0.51875 0
2.2375 0.5125 0
2.48125 0.39375 0
2.36094 0.389063 0
2.24062 0.384375 0
2.4875 0.2625 0
2.36562 0.259375 0
2.24375 0.25625 0
2.2375 0.5125 0
2.11875 0.50625 0
2 0.5 0
2.24062 0.384375 0
2.12031 0.379687 0
2 0.375 0
2.24375 0.25625 0
2.12188 0.253125 0
2 0.25 0
2.4875 0.2625 0
2.36562 0.259375 0
2.24375 0.25625 0
2.49375 0.13125 0
2.37031 0.129688 0
2.24688 0.128125 0
2.5 0 0
2.375 0 0
2.25 0 0
2.24375 0.25625 0
2.12188 0.253125 0
2 0.25 0
2.24688 0.128125 0
2.12344 0.126562 0
2 0.125 0
2.25 0 0
2.125 0 0
2 0 0
4 1 0
3.8625 1.0125 0
3.725 1.025 0
4 0.875 0
3.86406 0.885938 0
3.72813 0.896875 0
4 0.75 0
3.86563 0.759375 0
3.73125 0.76875 0
3.725 1.025 0
3.5875 1.0375 0
3.45 1.05 0
3.72813 0.896875 0
3.59219 0.907813 0
3.45625 0.91875 0
3.73125 0.76875 0
3.59688 0.778125 0
3.4625 0.7875 0
4 0.75 0
3.86563 0.759375 0
3.73125 0.76875 0
4 0.625 0
3.86719 0.632812 0
[...]
POINT_DATA 8640
VECTORS v double
1.21478 -0.231946 0
1.19814 -0.18981 0
1.17934 -0.149384 0
1.14201 -0.20725 0
1.11701 -0.171402 0
1.09574 -0.140448 0
1.0554 -0.180516 0
1.0274 -0.15093 0
1.00032 -0.124026 0
1.17934 -0.149384 0
1.16942 -0.120343 0
1.15752 -0.0914417 0
1.09574 -0.140448 0
1.07841 -0.112528 0
1.06447 -0.0885874 0
1.00032 -0.124026 0
0.978943 -0.10016 0
0.960054 -0.0788995 0
1.0554 -0.180516 0
1.0274 -0.15093 0
1.00032 -0.124026 0
0.944197 -0.140869 0
0.911828 -0.119279 0
0.882887 -0.100111 0
0.810599 -0.109724 0
0.779158 -0.0939582 0
0.750337 -0.0794696 0
1.00032 -0.124026 0
0.978943 -0.10016 0
0.960054 -0.0788995 0
0.882887 -0.100111 0
0.858761 -0.0822854 0
0.838266 -0.0657085 0
0.750337 -0.0794696 0
0.725947 -0.0656877 0
0.70491 -0.0528141 0
1.15752 -0.0914417 0
1.14986 -0.0690852 0
1.14047 -0.0450685 0
1.06447 -0.0885874 0
1.05196 -0.0663184 0
1.04254 -0.0448273 0
0.960054 -0.0788995 0
0.94493 -0.058792 0
0.933145 -0.039709 0
1.14047 -0.0450685 0
1.13325 -0.0237403 0
1.125 0 0
1.04254 -0.0448273 0
1.03247 -0.0227039 0
1.02539 0 0
0.933145 -0.039709 0
0.921578 -0.0200109 0
0.914062 0 0
0.960054 -0.0788995 0
0.94493 -0.058792 0
0.933145 -0.039709 0
0.838266 -0.0657085 0
0.821835 -0.0493399 0
0.809415 -0.033969 0
0.70491 -0.0528141 0
0.687761 -0.040103 0
0.67469 -0.0279225 0
0.933145 -0.039709 0
0.921578 -0.0200109 0
0.914062 0 0
0.809415 -0.033969 0
0.798167 -0.0176243 0
0.791016 0 0
0.67469 -0.0279225 0
0.663273 -0.0146409 0
0.65625 0 0
0.810599 -0.109724 0
0.779158 -0.0939582 0
0.750337 -0.0794696 0
0.661338 -0.0733804 0
0.629953 -0.0629969 0
0.60121 -0.0533724 0
0.488757 -0.043463 0
0.460208 -0.0376403 0
0.434264 -0.032275 0
0.750337 -0.0794696 0
0.725947 -0.0656877 0
0.70491 -0.0528141 0
0.60121 -0.0533724 0
0.576947 -0.0443143 0
0.556031 -0.0359466 0
0.434264 -0.032275 0
0.41225 -0.0272041 0
0.393398 -0.0225575 0
0.488757 -0.043463 0
0.460208 -0.0376403 0
0.434264 -0.032275 0
0.285903 -0.0129282 0
0.263986 -0.0110388 0
0.244601 -0.00942633 0
0 0 0
0 0 0
0 0 0
0.434264 -0.032275 0
0.41225 -0.0272041 0
0.393398 -0.0225575 0
0.244601 -0.00942633 0
0.227611 -0.00787315 0
0.213419 -0.0065512 0
0 0 0
0 0 0
0 0 0
0.70491 -0.0528141 0
0.687761 -0.040103 0
0.67469 -0.0279225 0
0.556031 -0.0359466 0
0.538966 -0.0274639 0
0.526077 -0.0191551 0
0.393398 -0.0225575 0
0.377806 -0.0177546 0
0.366101 -0.0130641 0
0.67469 -0.0279225 0
0.663273 -0.0146409 0
0.65625 0 0
0.526077 -0.0191551 0
0.515585 -0.00991005 0
0.509766 0 0
0.366101 -0.0130641 0
0.356624 -0.00747881 0
0.351562 0 0
0.393398 -0.0225575 0
0.377806 -0.0177546 0
0.366101 -0.0130641 0
0.213419 -0.0065512 0
0.20115 -0.0049882 0
0.192391 -0.00358003 0
0 0 0
0 0 0
0 0 0
0.366101 -0.0130641 0
0.356624 -0.00747881 0
0.351562 0 0
0.192391 -0.00358003 0
0.184961 -0.00181836 0
0.181641 0 0
0 0 0
0 0 0
0 0 0
1.63653 -0.355541 0
1.57192 -0.391543 0
1.4958 -0.40518 0
1.49498 -0.278221 0
1.44021 -0.306849 0
1.37731 -0.321213 0
1.35869 -0.220264 0
1.31895 -0.248072 0
1.27246 -0.264264 0
1.4958 -0.40518 0
1.42645 -0.396148 0
1.35587 -0.373894 0
1.37731 -0.321213 0
1.32248 -0.322347 0
1.26442 -0.311995 0
1.27246 -0.264264 0
1.22918 -0.268428 0
1.18098 -0.261715 0
1.35869 -0.220264 0
1.31895 -0.248072 0
1.27246 -0.264264 0
1.23883 -0.170403 0
1.20027 -0.18581 0
1.15809 -0.194949 0
1.07733 -0.117049 0
1.04092 -0.130562 0
1.00166 -0.139699 0
1.27246 -0.264264 0
1.22918 -0.268428 0
1.18098 -0.261715 0
1.15809 -0.194949 0
1.11488 -0.197223 0
1.07033 -0.193131 0
1.00166 -0.139699 0
0.964519 -0.144427 0
0.925855 -0.144095 0
1.35587 -0.373894 0
1.30657 -0.34358 0
1.2634 -0.306049 0
1.26442 -0.311995 0
1.22556 -0.29155 0
1.18667 -0.265777 0
1.18098 -0.261715 0
1.14481 -0.246869 0
1.10742 -0.226596 0
1.2634 -0.306049 0
1.23721 -0.270318 0
1.21478 -0.231946 0
1.18667 -0.265777 0
1.16314 -0.236422 0
1.14201 -0.20725 0
1.10742 -0.226596 0
1.08131 -0.204059 0
1.0554 -0.180516 0
1.18098 -0.261715 0
1.14481 -0.246869 0
1.10742 -0.226596 0
1.07033 -0.193131 0
1.03346 -0.183997 0
0.99779 -0.171592 0
0.925855 -0.144095 0
0.893593 -0.139506 0
0.861562 -0.131776 0
1.10742 -0.226596 0
1.08131 -0.204059 0
1.0554 -0.180516 0
0.99779 -0.171592 0
0.969783 -0.157025 0
0.944197 -0.140869 0
0.861562 -0.131776 0
0.835449 -0.121594 0
0.810599 -0.109724 0
1.07733 -0.117049 0
1.04092 -0.130562 0
1.00166 -0.139699 0
0.921347 -0.0828941 0
0.888815 -0.0915908 0
0.852432 -0.0971936 0
0.742811 -0.0419542 0
0.710631 -0.0479243 0
0.674891 -0.0521307 0
1.00166 -0.139699 0
0.964519 -0.144427 0
0.925855 -0.144095 0
0.852432 -0.0971936 0
0.817482 -0.0992553 0
0.779951 -0.0979756 0
0.674891 -0.0521307 0
0.640482 -0.054355 0
0.60416 -0.0546328 0
0.742811 -0.0419542 0
0.710631 -0.0479243 0
0.674891 -0.0521307 0
0.469368 -0.0127706 0
0.450449 -0.0148823 0
0.425559 -0.0163626 0
0 0 0
0 0 0
0 0 0
0.674891 -0.0521307 0
0.640482 -0.054355 0
0.60416 -0.0546328 0
0.425559 -0.0163626 0
0.402372 -0.0171338 0
0.375241 -0.0170606 0
0 0 0
0 0 0
0 0 0
0.925855 -0.144095 0
0.893593 -0.139506 0
0.861562 -0.131776 0
0.779951 -0.0979756 0
0.747551 -0.0940333 0
0.714768 -0.0881945 0
0.60416 -0.0546328 0
0.572425 -0.0533036 0
0.540706 -0.050858 0
0.861562 -0.131776 0
0.835449 -0.121594 0
0.810599 -0.109724 0
0.714768 -0.0881945 0
0.687408 -0.0813002 0
0.661338 -0.0733804 0
0.540706 -0.050858 0
0.514036 -0.0475999 0
0.488757 -0.043463 0
0.60416 -0.0546328 0
0.572425 -0.0533036 0
0.540706 -0.050858 0
0.375241 -0.0170606 0
0.351803 -0.016565 0
0.327168 -0.0155207 0
0 0 0
0 0 0
0 0 0
0.540706 -0.050858 0
0.514036 -0.0475999 0
0.488757 -0.043463 0
0.327168 -0.0155207 0
0.306117 -0.0144265 0
0.285903 -0.0129282 0
0 0 0
0 0 0
0 0 0
1.2515 0.057161 0
1.32321 0.0494944 0
1.37971 0.0397636 0
1.25682 -0.0154592 0
1.32248 -0.00669351 0
1.37799 -0.000961065 0
1.24254 -0.0812848 0
1.30609 -0.0570627 0
1.35988 -0.0397504 0
1.37971 0.0397636 0
1.42061 0.0310215 0
1.45085 0.0220147 0
1.37799 -0.000961065 0
1.41626 -0.000480289 0
1.44687 -0.000878599 0
1.35988 -0.0397504 0
1.39743 -0.0301369 0
1.4277 -0.0229489 0
1.24254 -0.0812848 0
1.30609 -0.0570627 0
1.35988 -0.0397504 0
1.25816 -0.154839 0
1.30835 -0.112899 0
1.35197 -0.0818682 0
1.26598 -0.189213 0
1.3005 -0.142451 0
1.33207 -0.106081 0
1.35988 -0.0397504 0
1.39743 -0.0301369 0
1.4277 -0.0229489 0
1.35197 -0.0818682 0
1.38233 -0.0625369 0
1.4079 -0.0471444 0
1.33207 -0.106081 0
1.35493 -0.0820931 0
1.37537 -0.0616272 0
1.45085 0.0220147 0
1.47326 0.0147513 0
1.48724 0.00814183 0
1.44687 -0.000878599 0
1.46782 -0.00227084 0
1.48226 -0.00259135 0
1.4277 -0.0229489 0
1.44898 -0.0178572 0
1.46417 -0.0124759 0
1.48724 0.00814183 0
1.4974 0.00354133 0
1.5 0 0
1.48226 -0.00259135 0
1.49106 -0.00179763 0
1.49414 0 0
1.46417 -0.0124759 0
1.47324 -0.00671472 0
1.47656 0 0
1.4277 -0.0229489 0
1.44898 -0.0178572 0
1.46417 -0.0124759 0
1.4079 -0.0471444 0
1.42512 -0.0357048 0
1.43825 -0.0242762 0
1.37537 -0.0616272 0
1.38874 -0.0459145 0
1.39987 -0.0304078 0
1.46417 -0.0124759 0
1.47324 -0.00671472 0
1.47656 0 0
1.43825 -0.0242762 0
1.44464 -0.0128892 0
1.44727 0 0
1.39987 -0.0304078 0
1.40425 -0.0159083 0
1.40625 0 0
1.26598 -0.189213 0
1.3005 -0.142451 0
1.33207 -0.106081 0
1.26446 -0.230322 0
1.2877 -0.177927 0
1.3068 -0.135122 0
1.26574 -0.239682 0
1.27198 -0.187946 0
1.27645 -0.144654 0
1.33207 -0.106081 0
1.35493 -0.0820931 0
1.37537 -0.0616272 0
1.3068 -0.135122 0
1.32275 -0.106053 0
1.33578 -0.0798607 0
1.27645 -0.144654 0
1.28237 -0.113811 0
1.28738 -0.0857458 0
1.26574 -0.239682 0
1.27198 -0.187946 0
1.27645 -0.144654 0
1.24019 -0.242171 0
1.23845 -0.197584 0
1.22943 -0.153279 0
1.21478 -0.231946 0
1.19814 -0.18981 0
1.17934 -0.149384 0
1.27645 -0.144654 0
1.28237 -0.113811 0
1.28738 -0.0857458 0
1.22943 -0.153279 0
1.22989 -0.123717 0
1.22569 -0.0931976 0
1.17934 -0.149384 0
1.16942 -0.120343 0
1.15752 -0.0914417 0
1.37537 -0.0616272 0
1.38874 -0.0459145 0
1.39987 -0.0304078 0
1.33578 -0.0798607 0
1.34469 -0.0597679 0
1.35134 -0.0398596 0
1.28738 -0.0857458 0
1.29001 -0.0638493 0
1.29198 -0.0418946 0
1.39987 -0.0304078 0
1.40425 -0.0159083 0
1.40625 0 0
1.35134 -0.0398596 0
1.35342 -0.0214255 0
1.35352 0 0
1.29198 -0.0418946 0
1.29072 -0.0219159 0
1.28906 0 0
1.28738 -0.0857458 0
1.29001 -0.0638493 0
1.29198 -0.0418946 0
1.22569 -0.0931976 0
1.22485 -0.0709554 0
1.22081 -0.0463568 0
1.15752 -0.0914417 0
1.14986 -0.0690852 0
1.14047 -0.0450685 0
1.29198 -0.0418946 0
1.29072 -0.0219159 0
1.28906 0 0
1.22081 -0.0463568 0
1.21787 -0.0250781 0
1.21289 0 0
1.14047 -0.0450685 0
1.13325 -0.0237403 0
1.125 0 0
1.59637 0.142628 0
1.70944 0.0910419 0
1.77389 0.0416373 0
1.63313 0.0266731 0
1.67008 0.0270422 0
1.70505 0.00329542 0
1.5345 0.0240098 0
1.53359 0.0211533 0
1.53907 0.00476066 0
1.77389 0.0416373 0
1.82561 -0.0368905 0
1.83919 -0.106349 0
1.70505 0.00329542 0
1.71166 -0.0405692 0
1.70871 -0.0947641 0
1.53907 0.00476066 0
1.53287 -0.0290491 0
1.52469 -0.0698298 0
1.5345 0.0240098 0
1.53359 0.0211533 0
1.53907 0.00476066 0
1.40477 -0.0125867 0
1.40162 -0.0198929 0
1.40537 -0.0335611 0
1.3075 -0.0114801 0
1.29322 -0.015378 0
1.28331 -0.0225398 0
1.53907 0.00476066 0
1.53287 -0.0290491 0
1.52469 -0.0698298 0
1.40537 -0.0335611 0
1.39623 -0.0542353 0
1.38724 -0.078303 0
1.28331 -0.0225398 0
1.26186 -0.0359393 0
1.2411 -0.0517279 0
1.83919 -0.106349 0
1.83162 -0.185027 0
1.78576 -0.25373 0
1.70871 -0.0947641 0
1.6737 -0.154579 0
1.62453 -0.205132 0
1.52469 -0.0698298 0
1.49728 -0.114748 0
1.46396 -0.156315 0
1.78576 -0.25373 0
1.71513 -0.306742 0
1.63653 -0.355541 0
1.62453 -0.205132 0
1.56674 -0.248328 0
1.49498 -0.278221 0
1.46396 -0.156315 0
1.41378 -0.190825 0
1.35869 -0.220264 0
1.52469 -0.0698298 0
1.49728 -0.114748 0
1.46396 -0.156315 0
1.38724 -0.078303 0
1.36065 -0.105134 0
1.3302 -0.130687 0
1.2411 -0.0517279 0
1.20816 -0.0707587 0
1.17276 -0.08879 0
1.46396 -0.156315 0
1.41378 -0.190825 0
1.35869 -0.220264 0
1.3302 -0.130687 0
1.28694 -0.153725 0
1.23883 -0.170403 0
1.17276 -0.08879 0
1.12738 -0.104809 0
1.07733 -0.117049 0
1.3075 -0.0114801 0
1.29322 -0.015378 0
1.28331 -0.0225398 0
1.14573 0.000114699 0
1.12779 -0.00527411 0
1.1122 -0.012998 0
0.936547 0.0121944 0
0.924312 0.00854362 0
0.912766 0.00362965 0
1.28331 -0.0225398 0
1.26186 -0.0359393 0
1.2411 -0.0517279 0
1.1122 -0.012998 0
1.09021 -0.0239625 0
1.06778 -0.0362796 0
0.912766 0.00362965 0
0.894116 -0.00335225 0
0.874405 -0.01117 0
0.936547 0.0121944 0
0.924312 0.00854362 0
0.912766 0.00362965 0
0.557849 0.00527483 0
0.556876 0.00407062 0
0.558275 0.00271195 0
0 0 0
0 0 0
0 0 0
0.912766 0.00362965 0
0.894116 -0.00335225 0
0.874405 -0.01117 0
0.558275 0.00271195 0
0.552823 0.000578878 0
0.546836 -0.00187065 0
0 0 0
0 0 0
0 0 0
1.2411 -0.0517279 0
1.20816 -0.0707587 0
1.17276 -0.08879 0
1.06778 -0.0362796 0
1.03724 -0.0498479 0
1.00352 -0.0624719 0
0.874405 -0.01117 0
0.846993 -0.0200737 0
0.817239 -0.0285359 0
1.17276 -0.08879 0
1.12738 -0.104809 0
1.07733 -0.117049 0
1.00352 -0.0624719 0
0.964319 -0.0737728 0
0.921347 -0.0828941 0
0.817239 -0.0285359 0
0.781806 -0.0361413 0
0.742811 -0.0419542 0
0.874405 -0.01117 0
0.846993 -0.0200737 0
0.817239 -0.0285359 0
0.546836 -0.00187065 0
0.533989 -0.00466084 0
0.517336 -0.0076785 0
0 0 0
0 0 0
0 0 0
0.817239 -0.0285359 0
0.781806 -0.0361413 0
0.742811 -0.0419542 0
0.517336 -0.0076785 0
0.496162 -0.0103852 0
0.469368 -0.0127706 0
0 0 0
0 0 0
0 0 0
1.94566 -0.0146659 0
1.87432 -0.127443 0
1.74601 -0.191442 0
1.86436 0.0836579 0
1.82272 -0.00063235 0
1.74488 -0.0802534 0
1.65555 0.0962521 0
1.64998 0.0254246 0
1.64764 -0.0346373 0
1.74601 -0.191442 0
1.6741 -0.192572 0
1.547 -0.150875 0
1.74488 -0.0802534 0
1.66279 -0.119825 0
1.57864 -0.125611 0
1.64764 -0.0346373 0
1.6167 -0.0738515 0
1.58702 -0.0840173 0
1.65555 0.0962521 0
1.64998 0.0254246 0
1.64764 -0.0346373 0
1.52187 0.0928072 0
1.51964 0.0500682 0
1.50364 0.0112493 0
1.33483 0.0928898 0
1.33837 0.0599266 0
1.34315 0.0310372 0
1.64764 -0.0346373 0
1.6167 -0.0738515 0
1.58702 -0.0840173 0
1.50364 0.0112493 0
1.47678 -0.00981402 0
1.44506 -0.0239883 0
1.34315 0.0310372 0
1.33005 0.00787101 0
1.32598 -0.00742858 0
1.547 -0.150875 0
1.53614 -0.0621171 0
1.45118 0.0234435 0
1.57864 -0.125611 0
1.54789 -0.0904618 0
1.54557 -0.0481098 0
1.58702 -0.0840173 0
1.55463 -0.0637034 0
1.52094 -0.0320268 0
1.45118 0.0234435 0
1.52938 0.0866567 0
1.59637 0.142628 0
1.54557 -0.0481098 0
1.58124 0.000105 0
1.63313 0.0266731 0
1.52094 -0.0320268 0
1.51926 3.47544e-05 0
1.5345 0.0240098 0
1.58702 -0.0840173 0
1.55463 -0.0637034 0
1.52094 -0.0320268 0
1.44506 -0.0239883 0
1.41559 -0.0253355 0
1.39729 -0.0219782 0
1.32598 -0.00742858 0
1.31499 -0.0139019 0
1.3106 -0.0139997 0
1.52094 -0.0320268 0
1.51926 3.47544e-05 0
1.5345 0.0240098 0
1.39729 -0.0219782 0
1.39385 -0.0144023 0
1.40477 -0.0125867 0
1.3106 -0.0139997 0
1.30475 -0.011563 0
1.3075 -0.0114801 0
1.33483 0.0928898 0
1.33837 0.0599266 0
1.34315 0.0310372 0
1.1104 0.0676987 0
1.14123 0.0527199 0
1.16052 0.0380872 0
0.785595 0.0430087 0
0.828785 0.0380217 0
0.861393 0.0319613 0
1.34315 0.0310372 0
1.33005 0.00787101 0
1.32598 -0.00742858 0
1.16052 0.0380872 0
1.16668 0.0257525 0
1.1663 0.0161068 0
0.861393 0.0319613 0
0.886429 0.0260425 0
0.904188 0.0204432 0
0.785595 0.0430087 0
0.828785 0.0380217 0
0.861393 0.0319613 0
0.417745 0.00684996 0
0.436855 0.00757845 0
0.460158 0.00744114 0
0 0 0
0 0 0
0 0 0
0.861393 0.0319613 0
0.886429 0.0260425 0
0.904188 0.0204432 0
0.460158 0.00744114 0
0.478525 0.00745785 0
0.497947 0.00679723 0
0 0 0
0 0 0
0 0 0
1.32598 -0.00742858 0
1.31499 -0.0139019 0
1.3106 -0.0139997 0
1.1663 0.0161068 0
1.1604 0.0102419 0
1.15449 0.00659119 0
0.904188 0.0204432 0
0.91718 0.0173147 0
0.926828 0.0152085 0
1.3106 -0.0139997 0
1.30475 -0.011563 0
1.3075 -0.0114801 0
1.15449 0.00659119 0
1.14849 0.00403017 0
1.14573 0.000114699 0
0.926828 0.0152085 0
0.932127 0.0144308 0
0.936547 0.0121944 0
0.904188 0.0204432 0
0.91718 0.0173147 0
0.926828 0.0152085 0
0.497947 0.00679723 0
0.512646 0.00649992 0
0.529804 0.00610155 0
0 0 0
0 0 0
0 0 0
0.926828 0.0152085 0
0.932127 0.0144308 0
0.936547 0.0121944 0
0.529804 0.00610155 0
0.542015 0.00562344 0
0.557849 0.00527483 0
0 0 0
0 0 0
0 0 0
0.826318 -1.25944 0
0.780284 -1.30548 0
0.705239 -1.52279 0
0.781007 -1.28142 0
0.647123 -1.21177 0
0.49198 -1.47281 0
0.815026 -1.23566 0
0.548449 -1.08371 0
0.378474 -1.39677 0
0.705239 -1.52279 0
0.655955 -1.53914 0
0.618513 -1.226 0
0.49198 -1.47281 0
0.383254 -1.36917 0
0.276566 -0.969579 0
0.378474 -1.39677 0
0.172111 -1.19678 0
0.0184573 -0.804271 0
0.815026 -1.23566 0
0.548449 -1.08371 0
0.378474 -1.39677 0
0.717753 -1.07532 0
0.530983 -0.918708 0
0.274977 -1.13576 0
0.775387 -0.880491 0
0.542985 -0.724136 0
0.263519 -0.826409 0
0.378474 -1.39677 0
0.172111 -1.19678 0
0.0184573 -0.804271 0
0.274977 -1.13576 0
0.0599535 -0.939269 0
-0.13263 -0.540254 0
0.263519 -0.826409 0
0.0381348 -0.680418 0
-0.115089 -0.324203 0
0.618513 -1.226 0
0.382979 -0.745747 0
0.310722 -0.221395 0
0.276566 -0.969579 0
0.0436041 -0.538786 0
-0.06631 -0.0132706 0
0.0184573 -0.804271 0
-0.256118 -0.461861 0
-0.398105 0.075633 0
0.310722 -0.221395 0
0.159189 0.227141 0
-0.101405 0.626392 0
-0.06631 -0.0132706 0
-0.201982 0.488722 0
-0.389283 0.831914 0
-0.398105 0.075633 0
-0.472456 0.637273 0
-0.566026 0.921324 0
0.0184573 -0.804271 0
-0.256118 -0.461861 0
-0.398105 0.075633 0
-0.13263 -0.540254 0
-0.384026 -0.189848 0
-0.497164 0.343112 0
-0.115089 -0.324203 0
-0.336552 -0.102744 0
-0.430782 0.235747 0
-0.398105 0.075633 0
-0.472456 0.637273 0
-0.566026 0.921324 0
-0.497164 0.343112 0
-0.597257 0.743571 0
-0.581603 0.957094 0
-0.430782 0.235747 0
-0.467846 0.661752 0
-0.237189 0.83615 0
0.775387 -0.880491 0
0.542985 -0.724136 0
0.263519 -0.826409 0
0.94889 -0.59814 0
0.696392 -0.625424 0
0.393054 -0.665099 0
1.37 -0.316914 0
1.17794 -0.359949 0
0.859343 -0.370326 0
0.263519 -0.826409 0
0.0381348 -0.680418 0
-0.115089 -0.324203 0
0.393054 -0.665099 0
0.244005 -0.462175 0
0.0208497 -0.252355 0
0.859343 -0.370326 0
0.709749 -0.239488 0
0.550195 -0.1114 0
1.37 -0.316914 0
1.17794 -0.359949 0
0.859343 -0.370326 0
1.72355 -0.0825714 0
1.50874 -0.210044 0
1.33994 -0.271356 0
1.94566 -0.0146659 0
1.87432 -0.127443 0
1.74601 -0.191442 0
0.859343 -0.370326 0
0.709749 -0.239488 0
0.550195 -0.1114 0
1.33994 -0.271356 0
1.18261 -0.274756 0
1.11476 -0.200174 0
1.74601 -0.191442 0
1.6741 -0.192572 0
1.547 -0.150875 0
-0.115089 -0.324203 0
-0.336552 -0.102744 0
-0.430782 0.235747 0
0.0208497 -0.252355 0
-0.0476931 -0.0267583 0
0.0048336 0.431558 0
0.550195 -0.1114 0
0.591651 0.131184 0
0.627095 0.253898 0
-0.430782 0.235747 0
-0.467846 0.661752 0
-0.237189 0.83615 0
0.0048336 0.431558 0
0.15866 0.649334 0
0.39555 0.641565 0
0.627095 0.253898 0
0.83777 0.329428 0
1.0681 0.4087 0
0.550195 -0.1114 0
0.591651 0.131184 0
0.627095 0.253898 0
1.11476 -0.200174 0
1.13652 -0.111536 0
1.24562 0.0454323 0
1.547 -0.150875 0
1.53614 -0.0621171 0
1.45118 0.0234435 0
0.627095 0.253898 0
0.83777 0.329428 0
1.0681 0.4087 0
1.24562 0.0454323 0
1.38662 0.186177 0
1.53624 0.259898 0
1.45118 0.0234435 0
1.52938 0.0866567 0
1.59637 0.142628 0
1.07677 -0.428446 0
1.23341 -0.506893 0
1.4057 -0.583905 0
1.12525 -0.553796 0
1.34631 -0.663217 0
1.49524 -0.749388 0
1.1591 -0.672885 0
1.39755 -0.796592 0
1.45805 -0.859149 0
1.4057 -0.583905 0
1.62571 -0.629186 0
1.79883 -0.637355 0
1.49524 -0.749388 0
1.64782 -0.777139 0
1.71505 -0.774592 0
1.45805 -0.859149 0
1.60313 -0.906738 0
1.76459 -0.934632 0
1.1591 -0.672885 0
1.39755 -0.796592 0
1.45805 -0.859149 0
1.15704 -0.80016 0
1.31365 -0.894252 0
1.39173 -0.962807 0
1.11913 -0.877255 0
1.24755 -0.998745 0
1.40139 -1.12734 0
1.45805 -0.859149 0
1.60313 -0.906738 0
1.76459 -0.934632 0
1.39173 -0.962807 0
1.64817 -1.1065 0
1.91254 -1.14802 0
1.40139 -1.12734 0
1.66136 -1.29134 0
1.79455 -1.26165 0
1.79883 -0.637355 0
1.89977 -0.571033 0
1.94314 -0.480721 0
1.71505 -0.774592 0
1.88842 -0.741931 0
2.07843 -0.676466 0
1.76459 -0.934632 0
2.11798 -0.899854 0
2.30029 -0.744436 0
1.94314 -0.480721 0
2.00762 -0.385525 0
2.06772 -0.274096 0
2.07843 -0.676466 0
2.24768 -0.542748 0
2.32657 -0.352844 0
2.30029 -0.744436 0
2.2844 -0.517 0
2.10281 -0.264039 0
1.76459 -0.934632 0
2.11798 -0.899854 0
2.30029 -0.744436 0
1.91254 -1.14802 0
2.03931 -1.04248 0
1.99651 -0.786023 0
1.79455 -1.26165 0
1.7307 -1.08713 0
1.65778 -0.720759 0
2.30029 -0.744436 0
2.2844 -0.517 0
2.10281 -0.264039 0
1.99651 -0.786023 0
1.76308 -0.449754 0
1.4728 -0.125519 0
1.65778 -0.720759 0
1.36594 -0.306382 0
1.07384 0.128498 0
1.11913 -0.877255 0
1.24755 -0.998745 0
1.40139 -1.12734 0
1.0409 -1.01466 0
1.16039 -1.16901 0
1.31761 -1.32263 0
0.969005 -1.11362 0
1.03002 -1.28791 0
1.16424 -1.46986 0
1.40139 -1.12734 0
1.66136 -1.29134 0
1.79455 -1.26165 0
1.31761 -1.32263 0
1.44679 -1.43204 0
1.4932 -1.34272 0
1.16424 -1.46986 0
1.20895 -1.54784 0
1.26175 -1.38729 0
0.969005 -1.11362 0
1.03002 -1.28791 0
1.16424 -1.46986 0
0.882464 -1.21781 0
0.901326 -1.32436 0
0.953426 -1.51145 0
0.826318 -1.25944 0
0.780284 -1.30548 0
0.705239 -1.52279 0
1.16424 -1.46986 0
1.20895 -1.54784 0
1.26175 -1.38729 0
0.953426 -1.51145 0
0.943303 -1.54864 0
0.945654 -1.30501 0
0.705239 -1.52279 0
0.655955 -1.53914 0
0.618513 -1.226 0
1.79455 -1.26165 0
1.7307 -1.08713 0
1.65778 -0.720759 0
1.4932 -1.34272 0
1.4512 -1.03273 0
1.37504 -0.519643 0
1.26175 -1.38729 0
1.12354 -0.909672 0
0.935972 -0.309015 0
1.65778 -0.720759 0
1.36594 -0.306382 0
1.07384 0.128498 0
1.37504 -0.519643 0
1.10887 -0.105087 0
0.906164 0.306966 0
0.935972 -0.309015 0
0.701217 0.088766 0
0.544033 0.524549 0
1.26175 -1.38729 0
1.12354 -0.909672 0
0.935972 -0.309015 0
0.945654 -1.30501 0
0.704065 -0.779074 0
0.567912 -0.270668 0
0.618513 -1.226 0
0.382979 -0.745747 0
0.310722 -0.221395 0
0.935972 -0.309015 0
0.701217 0.088766 0
0.544033 0.524549 0
0.567912 -0.270668 0
0.394651 0.10378 0
0.173691 0.517397 0
0.310722 -0.221395 0
0.159189 0.227141 0
-0.101405 0.626392 0
0 0 0
0 0 0
0 0 0
0.159919 -0.0172283 0
0.2026 -0.020923 0
0.233322 -0.0237917 0
0.426521 -0.0341136 0
0.469955 -0.0510462 0