# vtk DataFile Version 3.0
#This file was generated by the deal.II library on 2025/1/8 at 8:35:02
ASCII
DATASET UNSTRUCTURED_GRID

POINTS 8640 double
1.1 1.1 0
0.9625 1.09063 0
0.825 1.08125 0
1.0875 0.9625 0
0.951563 0.954297 0
0.815625 0.946094 0
1.075 0.825 0
0.940625 0.817969 0
0.80625 0.810937 0
0.825 1.08125 0
0.6875 1.07187 0
0.55 1.0625 0
0.815625 0.946094 0
0.679688 0.937891 0
0.54375 0.929688 0
0.80625 0.810937 0
0.671875 0.803906 0
0.5375 0.796875 0
1.075 0.825 0
0.940625 0.817969 0
0.80625 0.810937 0
1.0625 0.6875 0
0.929688 0.681641 0
0.796875 0.675781 0
1.05 0.55 0
0.91875 0.545313 0
0.7875 0.540625 0
0.80625 0.810937 0
0.671875 0.803906 0
0.5375 0.796875 0
0.796875 0.675781 0
0.664062 0.669922 0
0.53125 0.664062 0
0.7875 0.540625 0
0.65625 0.535937 0
0.525 0.53125 0
0.55 1.0625 0
0.4125 1.05313 0
0.275 1.04375 0
0.54375 0.929688 0
0.407813 0.921484 0
0.271875 0.913281 0
0.5375 0.796875 0
0.403125 0.789844 0
0.26875 0.782813 0
0.275 1.04375 0
0.1375 1.03437 0
0 1.025 0
0.271875 0.913281 0
0.135938 0.905078 0
0 0.896875 0
0.26875 0.782813 0
0.134375 0.775781 0
0 0.76875 0
0.5375 0.796875 0
0.403125 0.789844 0
0.26875 0.782813 0
0.53125 0.664062 0
0.398438 0.658203 0
0.265625 0.652344 0
0.525 0.53125 0
0.39375 0.526563 0
0.2625 0.521875 0
0.26875 0.782813 0
0.134375 0.775781 0
0 0.76875 0
0.265625 0.652344 0
0.132812 0.646484 0
0 0.640625 0
0.2625 0.521875 0
0.13125 0.517187 0
0 0.5125 0
1.05 0.55 0
0.91875 0.545313 0
0.7875 0.540625 0
1.0375 0.4125 0
0.907812 0.408984 0
0.778125 0.405469 0
1.025 0.275 0
0.896875 0.272656 0
0.76875 0.270313 0
0.7875 0.540625 0
0.65625 0.535937 0
0.525 0.53125 0
0.778125 0.405469 0
0.648438 0.401953 0
0.51875 0.398438 0
0.76875 0.270313 0
0.640625 0.267969 0
0.5125 0.265625 0
1.025 0.275 0
0.896875 0.272656 0
0.76875 0.270313 0
1.0125 0.1375 0
0.885937 0.136328 0
0.759375 0.135156 0
1 0 0
0.875 0 0
0.75 0 0
0.76875 0.270313 0
0.640625 0.267969 0
0.5125 0.265625 0
0.759375 0.135156 0
0.632812 0.133984 0
0.50625 0.132812 0
0.75 0 0
0.625 0 0
0.5 0 0
0.525 0.53125 0
0.39375 0.526563 0
0.2625 0.521875 0
0.51875 0.398438 0
0.389062 0.394922 0
0.259375 0.391406 0
0.5125 0.265625 0
0.384375 0.263281 0
0.25625 0.260937 0
0.2625 0.521875 0
0.13125 0.517187 0
0 0.5125 0
0.259375 0.391406 0
0.129688 0.387891 0
0 0.384375 0
0.25625 0.260937 0
0.128125 0.258594 0
0 0.25625 0
0.5125 0.265625 0
0.384375 0.263281 0
0.25625 0.260937 0
0.50625 0.132812 0
0.379687 0.131641 0
0.253125 0.130469 0
0.5 0 0
0.375 0 0
0.25 0 0
0.25625 0.260937 0
0.128125 0.258594 0
0 0.25625 0
0.253125 0.130469 0
0.126562 0.129297 0
0 0.128125 0
0.25 0 0
0.125 0 0
0 0 0
2 1 0
1.8875 1.0125 0
1.775 1.025 0
2 0.875 0
1.88594 0.885938 0
1.77188 0.896875 0
2 0.75 0
1.88437 0.759375 0
1.76875 0.76875 0
1.775 1.025 0
1.6625 1.0375 0
1.55 1.05 0
1.77188 0.896875 0
1.65781 0.907813 0
1.54375 0.91875 0
1.76875 0.76875 0
1.65313 0.778125 0
1.5375 0.7875 0
2 0.75 0
1.88437 0.759375 0
1.76875 0.76875 0
2 0.625 0
1.88281 0.632812 0
1.76562 0.640625 0
2 0.5 0
1.88125 0.50625 0
1.7625 0.5125 0
1.76875 0.76875 0
1.65313 0.778125 0
1.5375 0.7875 0
1.76562 0.640625 0
1.64844 0.648438 0
1.53125 0.65625 0
1.7625 0.5125 0
1.64375 0.51875 0
1.525 0.525 0
1.55 1.05 0
1.4375 1.0625 0
1.325 1.075 0
1.54375 0.91875 0
1.42969 0.929688 0
1.31563 0.940625 0
1.5375 0.7875 0
1.42188 0.796875 0
1.30625 0.80625 0
1.325 1.075 0
1.2125 1.0875 0
1.1 1.1 0
1.31563 0.940625 0
1.20156 0.951563 0
1.0875 0.9625 0
1.30625 0.80625 0
1.19063 0.815625 0
1.075 0.825 0
1.5375 0.7875 0
1.42188 0.796875 0
1.30625 0.80625 0
1.53125 0.65625 0
1.41406 0.664062 0
1.29688 0.671875 0
1.525 0.525 0
1.40625 0.53125 0
1.2875 0.5375 0
1.30625 0.80625 0
1.19063 0.815625 0
1.075 0.825 0
1.29688 0.671875 0
1.17969 0.679688 0
1.0625 0.6875 0
1.2875 0.5375 0
1.16875 0.54375 0
1.05 0.55 0
2 0.5 0
1.88125 0.50625 0
1.7625 0.5125 0
2 0.375 0
1.87969 0.379687 0
1.75938 0.384375 0
2 0.25 0
1.87813 0.253125 0
1.75625 0.25625 0
1.7625 0.5125 0
1.64375 0.51875 0
1.525 0.525 0
1.75938 0.384375 0
1.63906 0.389063 0
1.51875 0.39375 0
1.75625 0.25625 0
1.63438 0.259375 0
1.5125 0.2625 0
2 0.25 0
1.87813 0.253125 0
1.75625 0.25625 0
2 0.125 0
1.87656 0.126562 0
1.75313 0.128125 0
2 0 0
1.875 0 0
1.75 0 0
1.75625 0.25625 0
1.63438 0.259375 0
1.5125 0.2625 0
1.75313 0.128125 0
1.62969 0.129688 0
1.50625 0.13125 0
1.75 0 0
1.625 0 0
1.5 0 0
1.525 0.525 0
1.40625 0.53125 0
1.2875 0.5375 0
1.51875 0.39375 0
1.39844 0.398438 0
1.27813 0.403125 0
1.5125 0.2625 0
1.39062 0.265625 0
1.26875 0.26875 0
1.2875 0.5375 0
1.16875 0.54375 0
1.05 0.55 0
1.27813 0.403125 0
1.15781 0.407813 0
1.0375 0.4125 0
1.26875 0.26875 0
1.14688 0.271875 0
1.025 0.275 0
1.5125 0.2625 0
1.39062 0.265625 0
1.26875 0.26875 0
1.50625 0.13125 0
1.38281 0.132812 0
1.25937 0.134375 0
1.5 0 0
1.375 0 0
1.25 0 0
1.26875 0.26875 0
1.14688 0.271875 0
1.025 0.275 0
1.25937 0.134375 0
1.13594 0.135938 0
1.0125 0.1375 0
1.25 0 0
1.125 0 0
1 0 0
1 2 0
0.875 2.00625 0
0.75 2.0125 0
1.0125 1.8875 0
0.885938 1.8918 0
0.759375 1.89609 0
1.025 1.775 0
0.896875 1.77734 0
0.76875 1.77969 0
0.75 2.0125 0
0.625 2.01875 0
0.5 2.025 0
0.759375 1.89609 0
0.632812 1.90039 0
0.50625 1.90469 0
0.76875 1.77969 0
0.640625 1.78203 0
0.5125 1.78437 0
1.025 1.775 0
0.896875 1.77734 0
0.76875 1.77969 0
1.0375 1.6625 0
0.907813 1.66289 0
0.778125 1.66328 0
1.05 1.55 0
0.91875 1.54844 0
0.7875 1.54688 0
0.76875 1.77969 0
0.640625 1.78203 0
0.5125 1.78437 0
0.778125 1.66328 0
0.648438 1.66367 0
0.51875 1.66406 0
0.7875 1.54688 0
0.65625 1.54531 0
0.525 1.54375 0
0.5 2.025 0
0.375 2.03125 0
0.25 2.0375 0
0.50625 1.90469 0
0.379687 1.90898 0
0.253125 1.91328 0
0.5125 1.78437 0
0.384375 1.78672 0
0.25625 1.78906 0
0.25 2.0375 0
0.125 2.04375 0
0 2.05 0
0.253125 1.91328 0
0.126562 1.91758 0
0 1.92187 0
0.25625 1.78906 0
0.128125 1.79141 0
0 1.79375 0
0.5125 1.78437 0
0.384375 1.78672 0
0.25625 1.78906 0
0.51875 1.66406 0
0.389062 1.66445 0
0.259375 1.66484 0
0.525 1.54375 0
0.39375 1.54219 0
0.2625 1.54062 0
0.25625 1.78906 0
0.128125 1.79141 0
0 1.79375 0
0.259375 1.66484 0
0.129688 1.66523 0
0 1.66562 0
0.2625 1.54062 0
0.13125 1.53906 0
0 1.5375 0
1.05 1.55 0
0.91875 1.54844 0
0.7875 1.54688 0
1.0625 1.4375 0
0.929688 1.43398 0
0.796875 1.43047 0
1.075 1.325 0
0.940625 1.31953 0
0.80625 1.31406 0
0.7875 1.54688 0
0.65625 1.54531 0
0.525 1.54375 0
0.796875 1.43047 0
0.664062 1.42695 0
0.53125 1.42344 0
0.80625 1.31406 0
0.671875 1.30859 0
0.5375 1.30312 0
1.075 1.325 0
0.940625 1.31953 0
0.80625 1.31406 0
1.0875 1.2125 0
0.951563 1.20508 0
0.815625 1.19766 0
1.1 1.1 0
0.9625 1.09063 0
0.825 1.08125 0
0.80625 1.31406 0
0.671875 1.30859 0
0.5375 1.30312 0
0.815625 1.19766 0
0.679688 1.19023 0
0.54375 1.18281 0
0.825 1.08125 0
0.6875 1.07187 0
0.55 1.0625 0
0.525 1.54375 0
0.39375 1.54219 0
0.2625 1.54062 0
0.53125 1.42344 0
0.398438 1.41992 0
0.265625 1.41641 0
0.5375 1.30312 0
0.403125 1.29766 0
0.26875 1.29219 0
0.2625 1.54062 0
0.13125 1.53906 0
0 1.5375 0
0.265625 1.41641 0
0.132812 1.41289 0
0 1.40937 0
0.26875 1.29219 0
0.134375 1.28672 0
0 1.28125 0
0.5375 1.30312 0
0.403125 1.29766 0
0.26875 1.29219 0
0.54375 1.18281 0
0.407813 1.17539 0
0.271875 1.16797 0
0.55 1.0625 0
0.4125 1.05313 0
0.275 1.04375 0
0.26875 1.29219 0
0.134375 1.28672 0
0 1.28125 0
0.271875 1.16797 0
0.135938 1.16055 0
0 1.15312 0
0.275 1.04375 0
0.1375 1.03437 0
0 1.025 0
2.9 1.1 0
2.7875 1.0875 0
2.675 1.075 0
2.9125 0.9625 0
2.79844 0.951563 0
2.68438 0.940625 0
2.925 0.825 0
2.80938 0.815625 0
2.69375 0.80625 0
2.675 1.075 0
2.5625 1.0625 0
2.45 1.05 0
2.68438 0.940625 0
2.57031 0.929688 0
2.45625 0.91875 0
2.69375 0.80625 0
2.57812 0.796875 0
2.4625 0.7875 0
2.925 0.825 0
2.80938 0.815625 0
2.69375 0.80625 0
2.9375 0.6875 0
2.82031 0.679688 0
2.70312 0.671875 0
2.95 0.55 0
2.83125 0.54375 0
2.7125 0.5375 0
2.69375 0.80625 0
2.57812 0.796875 0
2.4625 0.7875 0
2.70312 0.671875 0
2.58594 0.664062 0
2.46875 0.65625 0
2.7125 0.5375 0
2.59375 0.53125 0
2.475 0.525 0
2.45 1.05 0
2.3375 1.0375 0
2.225 1.025 0
2.45625 0.91875 0
2.34219 0.907813 0
2.22813 0.896875 0
2.4625 0.7875 0
2.34688 0.778125 0
2.23125 0.76875 0
2.225 1.025 0
2.1125 1.0125 0
2 1 0
2.22813 0.896875 0
2.11406 0.885938 0
2 0.875 0
2.23125 0.76875 0
2.11563 0.759375 0
2 0.75 0
2.4625 0.7875 0
2.34688 0.778125 0
2.23125 0.76875 0
2.46875 0.65625 0
2.35156 0.648438 0
2.23438 0.640625 0
2.475 0.525 0
2.35625 0.51875 0
2.2375 0.5125 0
2.23125 0.76875 0
2.11563 0.759375 0
2 0.75 0
2.23438 0.640625 0
2.11719 0.632812 0
2 0.625 0
2.2375 0.5125 0
2.11875 0.50625 0
2 0.5 0
2.95 0.55 0
2.83125 0.54375 0
2.7125 0.5375 0
2.9625 0.4125 0
2.84219 0.407813 0
2.72188 0.403125 0
2.975 0.275 0
2.85313 0.271875 0
2.73125 0.26875 0
2.7125 0.5375 0
2.59375 0.53125 0
2.475 0.525 0
2.72188 0.403125 0
2.60156 0.398438 0
2.48125 0.39375 0
2.73125 0.26875 0
2.60938 0.265625 0
2.4875 0.2625 0
2.975 0.275 0
2.85313 0.271875 0
2.73125 0.26875 0
2.9875 0.1375 0
2.86406 0.135938 0
2.74063 0.134375 0
3 0 0
2.875 0 0
2.75 0 0
2.73125 0.26875 0
2.60938 0.265625 0
2.4875 0.2625 0
2.74063 0.134375 0
2.61719 0.132812 0
2.49375 0.13125 0
2.75 0 0
2.625 0 0
2.5 0 0
2.475 0.525 0
2.35625 0.51875 0
2.2375 0.5125 0
2.48125 0.39375 0
2.36094 0.389063 0
2.24062 0.384375 0
2.4875 0.2625 0
2.36562 0.259375 0
2.24375 0.25625 0
2.2375 0.5125 0
2.11875 0.50625 0
2 0.5 0
2.24062 0.384375 0
2.12031 0.379687 0
2 0.375 0
2.24375 0.25625 0
2.12188 0.253125 0
2 0.25 0
2.4875 0.2625 0
2.36562 0.259375 0
2.24375 0.25625 0
2.49375 0.13125 0
2.37031 0.129688 0
2.24688 0.128125 0
2.5 0 0
2.375 0 0
2.25 0 0
2.24375 0.25625 0
2.12188 0.253125 0
2 0.25 0
2.24688 0.128125 0
2.12344 0.126562 0
2 0.125 0
2.25 0 0
2.125 0 0
2 0 0
4 1 0
3.8625 1.0125 0
3.725 1.025 0
4 0.875 0
3.86406 0.885938 0
3.72813 0.896875 0
4 0.75 0
3.86563 0.759375 0
3.73125 0.76875 0
3.725 1.025 0
3.5875 1.0375 0
3.45 1.05 0
3.72813 0.896875 0
3.59219 0.907813 0
3.45625 0.91875 0
3.73125 0.76875 0
3.59688 0.778125 0
3.4625 0.7875 0
4 0.75 0
3.86563 0.759375 0
3.73125 0.76875 0
4 0.625 0
3.86719 0.632812 0
[...]
POINT_DATA 8640
VECTORS v double
1.22982 -0.253705 0
1.21095 -0.21168 0
1.1873 -0.169429 0
1.15708 -0.225217 0
1.129 -0.189369 0
1.10388 -0.157527 0
1.07004 -0.195463 0
1.03816 -0.166181 0
1.00882 -0.138748 0
1.1873 -0.169429 0
1.17619 -0.13861 0
1.16095 -0.106252 0
1.10388 -0.157527 0
1.08477 -0.127914 0
1.06819 -0.101448 0
1.00882 -0.138748 0
0.984668 -0.113373 0
0.964291 -0.0901618 0
1.07004 -0.195463 0
1.03816 -0.166181 0
1.00882 -0.138748 0
0.957932 -0.152377 0
0.922677 -0.131394 0
0.890884 -0.11185 0
0.823601 -0.118341 0
0.789613 -0.103304 0
0.758149 -0.0887583 0
1.00882 -0.138748 0
0.984668 -0.113373 0
0.964291 -0.0901618 0
0.890884 -0.11185 0
0.864506 -0.0928659 0
0.842048 -0.0748535 0
0.758149 -0.0887583 0
0.731604 -0.0742333 0
0.708653 -0.0602874 0
1.16095 -0.106252 0
1.15249 -0.0808785 0
1.14072 -0.0527616 0
1.06819 -0.101448 0
1.05452 -0.0764585 0
1.04309 -0.0515709 0
0.964291 -0.0901618 0
0.947126 -0.0675561 0
0.934275 -0.0455988 0
1.14072 -0.0527616 0
1.13383 -0.0278427 0
1.125 0 0
1.04309 -0.0515709 0
1.03304 -0.0261059 0
1.02539 0 0
0.934275 -0.0455988 0
0.921867 -0.0229009 0
0.914062 0 0
0.964291 -0.0901618 0
0.947126 -0.0675561 0
0.934275 -0.0455988 0
0.842048 -0.0748535 0
0.82391 -0.0565721 0
0.810276 -0.0387355 0
0.708653 -0.0602874 0
0.689931 -0.0460204 0
0.675658 -0.0318591 0
0.934275 -0.0455988 0
0.921867 -0.0229009 0
0.914062 0 0
0.810276 -0.0387355 0
0.798378 -0.0198629 0
0.791016 0 0
0.675658 -0.0318591 0
0.663511 -0.0165296 0
0.65625 0 0
0.823601 -0.118341 0
0.789613 -0.103304 0
0.758149 -0.0887583 0
0.674588 -0.0795503 0
0.640926 -0.0696184 0
0.609578 -0.0600242 0
0.501987 -0.0469341 0
0.471439 -0.0414859 0
0.443 -0.03627 0
0.758149 -0.0887583 0
0.731604 -0.0742333 0
0.708653 -0.0602874 0
0.609578 -0.0600242 0
0.583028 -0.0505214 0
0.559988 -0.0413047 0
0.443 -0.03627 0
0.418705 -0.0310348 0
0.397621 -0.0259612 0
0.501987 -0.0469341 0
0.471439 -0.0414859 0
0.443 -0.03627 0
0.298337 -0.0142946 0
0.274369 -0.0124669 0
0.252686 -0.010849 0
0 0 0
0 0 0
0 0 0
0.443 -0.03627 0
0.418705 -0.0310348 0
0.397621 -0.0259612 0
0.252686 -0.010849 0
0.233429 -0.00917604 0
0.217278 -0.00766637 0
0 0 0
0 0 0
0 0 0
0.708653 -0.0602874 0
0.689931 -0.0460204 0
0.675658 -0.0318591 0
0.559988 -0.0413047 0
0.541231 -0.0315984 0
0.527118 -0.0218676 0
0.397621 -0.0259612 0
0.380229 -0.0204921 0
0.367268 -0.0149898 0
0.675658 -0.0318591 0
0.663511 -0.0165296 0
0.65625 0 0
0.527118 -0.0218676 0
0.515814 -0.0111803 0
0.509766 0 0
0.367268 -0.0149898 0
0.356889 -0.00847146 0
0.351562 0 0
0.397621 -0.0259612 0
0.380229 -0.0204921 0
0.367268 -0.0149898 0
0.217278 -0.00766637 0
0.203241 -0.00582065 0
0.193442 -0.00410559 0
0 0 0
0 0 0
0 0 0
0.367268 -0.0149898 0
0.356889 -0.00847146 0
0.351562 0 0
0.193442 -0.00410559 0
0.185141 -0.00202438 0
0.181641 0 0
0 0 0
0 0 0
0 0 0
1.6799 -0.337909 0
1.61126 -0.382027 0
1.53488 -0.403885 0
1.52943 -0.259038 0
1.47281 -0.294865 0
1.40997 -0.316786 0
1.38715 -0.201749 0
1.34577 -0.235784 0
1.30161 -0.25856 0
1.53488 -0.403885 0
1.46111 -0.400747 0
1.38734 -0.384573 0
1.40997 -0.316786 0
1.35219 -0.323518 0
1.292 -0.318724 0
1.30161 -0.25856 0
1.25488 -0.267768 0
1.20674 -0.26607 0
1.38715 -0.201749 0
1.34577 -0.235784 0
1.30161 -0.25856 0
1.26135 -0.154077 0
1.22425 -0.174357 0
1.18302 -0.188496 0
1.09443 -0.102666 0
1.06021 -0.120026 0
1.02264 -0.133081 0
1.30161 -0.25856 0
1.25488 -0.267768 0
1.20674 -0.26607 0
1.18302 -0.188496 0
1.1391 -0.194945 0
1.09348 -0.194884 0
1.02264 -0.133081 0
0.98552 -0.141205 0
0.946387 -0.144153 0
1.38734 -0.384573 0
1.33414 -0.35805 0
1.28642 -0.324051 0
1.292 -0.318724 0
1.24989 -0.302085 0
1.20779 -0.279911 0
1.20674 -0.26607 0
1.16652 -0.254846 0
1.12786 -0.237843 0
1.28642 -0.324051 0
1.25723 -0.29049 0
1.22982 -0.253705 0
1.20779 -0.279911 0
1.18139 -0.25276 0
1.15708 -0.225217 0
1.12786 -0.237843 0
1.09782 -0.217367 0
1.07004 -0.195463 0
1.20674 -0.26607 0
1.16652 -0.254846 0
1.12786 -0.237843 0
1.09348 -0.194884 0
1.05466 -0.189071 0
1.01676 -0.179472 0
0.946387 -0.144153 0
0.912914 -0.142382 0
0.879223 -0.137084 0
1.12786 -0.237843 0
1.09782 -0.217367 0
1.07004 -0.195463 0
1.01676 -0.179472 0
0.986181 -0.166936 0
0.957932 -0.152377 0
0.879223 -0.137084 0
0.85093 -0.128756 0
0.823601 -0.118341 0
1.09443 -0.102666 0
1.06021 -0.120026 0
1.02264 -0.133081 0
0.93486 -0.0723997 0
0.905089 -0.0838504 0
0.870882 -0.0922265 0
0.75273 -0.0349246 0
0.724232 -0.0425638 0
0.690716 -0.0485126 0
1.02264 -0.133081 0
0.98552 -0.141205 0
0.946387 -0.144153 0
0.870882 -0.0922265 0
0.836672 -0.0968601 0
0.799153 -0.0979396 0
0.690716 -0.0485126 0
0.65794 -0.0523433 0
0.621852 -0.0540992 0
0.75273 -0.0349246 0
0.724232 -0.0425638 0
0.690716 -0.0485126 0
0.477842 -0.0105059 0
0.462699 -0.0131706 0
0.440082 -0.015277 0
0 0 0
0 0 0
0 0 0
0.690716 -0.0485126 0
0.65794 -0.0523433 0
0.621852 -0.0540992 0
0.440082 -0.015277 0
0.418706 -0.0166214 0
0.391865 -0.0170825 0
0 0 0
0 0 0
0 0 0
0.946387 -0.144153 0
0.912914 -0.142382 0
0.879223 -0.137084 0
0.799153 -0.0979396 0
0.766167 -0.0959843 0
0.732057 -0.0919276 0
0.621852 -0.0540992 0
0.590151 -0.0540373 0
0.557309 -0.052741 0
0.879223 -0.137084 0
0.85093 -0.128756 0
0.823601 -0.118341 0
0.732057 -0.0919276 0
0.702967 -0.0864489 0
0.674588 -0.0795503 0
0.557309 -0.052741 0
0.529403 -0.0504067 0
0.501987 -0.0469341 0
0.621852 -0.0540992 0
0.590151 -0.0540373 0
0.557309 -0.052741 0
0.391865 -0.0170825 0
0.368563 -0.0170484 0
0.342794 -0.0163899 0
0 0 0
0 0 0
0 0 0
0.557309 -0.052741 0
0.529403 -0.0504067 0
0.501987 -0.0469341 0
0.342794 -0.0163899 0
0.320563 -0.015622 0
0.298337 -0.0142946 0
0 0 0
0 0 0
0 0 0
1.2502 0.0162795 0
1.32221 0.0127892 0
1.37884 0.00810721 0
1.25985 -0.0583624 0
1.32462 -0.0445806 0
1.37927 -0.0338054 0
1.25032 -0.121201 0
1.31137 -0.0929518 0
1.36352 -0.0712335 0
1.37884 0.00810721 0
1.42002 0.00401551 0
1.4504 0.000323477 0
1.37927 -0.0338054 0
1.41706 -0.0283088 0
1.44729 -0.0234086 0
1.36352 -0.0712335 0
1.39964 -0.0570405 0
1.42916 -0.0447992 0
1.25032 -0.121201 0
1.31137 -0.0929518 0
1.36352 -0.0712335 0
1.2674 -0.193717 0
1.31517 -0.148107 0
1.3567 -0.112951 0
1.27937 -0.225206 0
1.31047 -0.17528 0
1.3389 -0.135255 0
1.36352 -0.0712335 0
1.39964 -0.0570405 0
1.42916 -0.0447992 0
1.3567 -0.112951 0
1.38544 -0.0892097 0
1.40986 -0.0688756 0
1.3389 -0.135255 0
1.35955 -0.107271 0
1.37824 -0.0821923 0
1.4504 0.000323477 0
1.47304 -0.00181583 0
1.48712 -0.00280398 0
1.44729 -0.0234086 0
1.46805 -0.019434 0
1.4824 -0.01405 0
1.42916 -0.0447992 0
1.44966 -0.034506 0
1.46466 -0.0235559 0
1.48712 -0.00280398 0
1.49741 -0.00200811 0
1.5 0 0
1.4824 -0.01405 0
1.49109 -0.00758571 0
1.49414 0 0
1.46466 -0.0235559 0
1.47324 -0.0123099 0
1.47656 0 0
1.42916 -0.0447992 0
1.44966 -0.034506 0
1.46466 -0.0235559 0
1.40986 -0.0688756 0
1.42614 -0.0523063 0
1.43883 -0.0353833 0
1.37824 -0.0821923 0
1.39031 -0.0616256 0
1.40066 -0.0408792 0
1.46466 -0.0235559 0
1.47324 -0.0123099 0
1.47656 0 0
1.43883 -0.0353833 0
1.44471 -0.018552 0
1.44727 0 0
1.40066 -0.0408792 0
1.40438 -0.0212262 0
1.40625 0 0
1.27937 -0.225206 0
1.31047 -0.17528 0
1.3389 -0.135255 0
1.27802 -0.262104 0
1.29831 -0.207979 0
1.31384 -0.162224 0
1.28048 -0.268828 0
1.28391 -0.215614 0
1.28441 -0.169734 0
1.3389 -0.135255 0
1.35955 -0.107271 0
1.37824 -0.0821923 0
1.31384 -0.162224 0
1.32782 -0.129834 0
1.33876 -0.0993417 0
1.28441 -0.169734 0
1.28838 -0.135919 0
1.29081 -0.103851 0
1.28048 -0.268828 0
1.28391 -0.215614 0
1.28441 -0.169734 0
1.25561 -0.266806 0
1.25066 -0.221868 0
1.2378 -0.175566 0
1.22982 -0.253705 0
1.21095 -0.21168 0
1.1873 -0.169429 0
1.28441 -0.169734 0
1.28838 -0.135919 0
1.29081 -0.103851 0
1.2378 -0.175566 0
1.23596 -0.143811 0
1.22946 -0.109672 0
1.1873 -0.169429 0
1.17619 -0.13861 0
1.16095 -0.106252 0
1.37824 -0.0821923 0
1.39031 -0.0616256 0
1.40066 -0.0408792 0
1.33876 -0.0993417 0
1.34647 -0.074801 0
1.35205 -0.0498829 0
1.29081 -0.103851 0
1.29223 -0.0778272 0
1.29269 -0.0511771 0
1.40066 -0.0408792 0
1.40438 -0.0212262 0
1.40625 0 0
1.35205 -0.0498829 0
1.35364 -0.0265906 0
1.35352 0 0
1.29269 -0.0511771 0
1.29108 -0.0267037 0
1.28906 0 0
1.29081 -0.103851 0
1.29223 -0.0778272 0
1.29269 -0.0511771 0
1.22946 -0.109672 0
1.22695 -0.0837762 0
1.22154 -0.0548676 0
1.16095 -0.106252 0
1.15249 -0.0808785 0
1.14072 -0.0527616 0
1.29269 -0.0511771 0
1.29108 -0.0267037 0
1.28906 0 0
1.22154 -0.0548676 0
1.21799 -0.0295615 0
1.21289 0 0
1.14072 -0.0527616 0
1.13383 -0.0278427 0
1.125 0 0
1.60832 0.262662 0
1.72775 0.199879 0
1.81447 0.129803 0
1.6265 0.143305 0
1.67007 0.131789 0
1.72199 0.0906005 0
1.47465 0.117207 0
1.4979 0.106011 0
1.52424 0.0783301 0
1.81447 0.129803 0
1.86272 0.0390571 0
1.88654 -0.0447401 0
1.72199 0.0906005 0
1.72991 0.0336474 0
1.73554 -0.0359555 0
1.52424 0.0783301 0
1.53149 0.0344696 0
1.53676 -0.0169838 0
1.47465 0.117207 0
1.4979 0.106011 0
1.52424 0.0783301 0
1.3532 0.0453058 0
1.36662 0.0374192 0
1.38788 0.0193388 0
1.2578 0.0317213 0
1.25724 0.0288675 0
1.25948 0.0194572 0
1.52424 0.0783301 0
1.53149 0.0344696 0
1.53676 -0.0169838 0
1.38788 0.0193388 0
1.38944 -0.00603882 0
1.39065 -0.0368173 0
1.25948 0.0194572 0
1.24839 0.00264505 0
1.23741 -0.0181233 0
1.88654 -0.0447401 0
1.87108 -0.133375 0
1.82875 -0.213231 0
1.73554 -0.0359555 0
1.70083 -0.105972 0
1.65792 -0.168642 0
1.53676 -0.0169838 0
1.51413 -0.0706789 0
1.48779 -0.121385 0
1.82875 -0.213231 0
1.75436 -0.27835 0
1.6799 -0.337909 0
1.65792 -0.168642 0
1.59907 -0.21995 0
1.52943 -0.259038 0
1.48779 -0.121385 0
1.43747 -0.163729 0
1.38715 -0.201749 0
1.53676 -0.0169838 0
1.51413 -0.0706789 0
1.48779 -0.121385 0
1.39065 -0.0368173 0
1.37069 -0.0697894 0
1.34628 -0.102377 0
1.23741 -0.0181233 0
1.21153 -0.0418148 0
1.18268 -0.0650966 0
1.48779 -0.121385 0
1.43747 -0.163729 0
1.38715 -0.201749 0
1.34628 -0.102377 0
1.30663 -0.131371 0
1.26135 -0.154077 0
1.18268 -0.0650966 0
1.14096 -0.0856261 0
1.09443 -0.102666 0
1.2578 0.0317213 0
1.25724 0.0288675 0
1.25948 0.0194572 0
1.09264 0.0240512 0
1.0853 0.021016 0
1.08244 0.0136717 0
0.885963 0.0243674 0
0.881807 0.022852 0
0.880046 0.0191056 0
1.25948 0.0194572 0
1.24839 0.00264505 0
1.23741 -0.0181233 0
1.08244 0.0136717 0
1.07013 0.0014795 0
1.05778 -0.0130429 0
0.880046 0.0191056 0
0.87025 0.0119321 0
0.859463 0.00322231 0
0.885963 0.0243674 0
0.881807 0.022852 0
0.880046 0.0191056 0
0.510148 0.00933057 0
0.516146 0.00882061 0
0.525731 0.00774669 0
0 0 0
0 0 0
0 0 0
0.880046 0.0191056 0
0.87025 0.0119321 0
0.859463 0.00322231 0
0.525731 0.00774669 0
0.528739 0.00562811 0
0.530873 0.00281629 0
0 0 0
0 0 0
0 0 0
1.23741 -0.0181233 0
1.21153 -0.0418148 0
1.18268 -0.0650966 0
1.05778 -0.0130429 0
1.0345 -0.0294471 0
1.00794 -0.0453267 0
0.859463 0.00322231 0
0.8399 -0.00718345 0
0.817037 -0.0175286 0
1.18268 -0.0650966 0
1.14096 -0.0856261 0
1.09443 -0.102666 0
1.00794 -0.0453267 0
0.973472 -0.0599968 0
0.93486 -0.0723997 0
0.817037 -0.0175286 0
0.787358 -0.0271065 0
0.75273 -0.0349246 0
0.859463 0.00322231 0
0.8399 -0.00718345 0
0.817037 -0.0175286 0
0.530873 0.00281629 0
0.525737 -0.000391446 0
0.515652 -0.004063 0
0 0 0
0 0 0
0 0 0
0.817037 -0.0175286 0
0.787358 -0.0271065 0
0.75273 -0.0349246 0
0.515652 -0.004063 0
0.500299 -0.00738216 0
0.477842 -0.0105059 0
0 0 0
0 0 0
0 0 0
1.6272 -0.265903 0
1.55392 -0.259856 0
1.43707 -0.248784 0
1.68954 -0.13929 0
1.58215 -0.174382 0
1.49343 -0.193931 0
1.59506 -0.0802093 0
1.56064 -0.119408 0
1.50641 -0.14127 0
1.43707 -0.248784 0
1.39545 -0.142748 0
1.30751 -0.0484689 0
1.49343 -0.193931 0
1.42315 -0.157293 0
1.39878 -0.100332 0
1.50641 -0.14127 0
1.46537 -0.113312 0
1.41037 -0.0669718 0
1.59506 -0.0802093 0
1.56064 -0.119408 0
1.50641 -0.14127 0
1.47207 -0.0296022 0
1.42806 -0.0484117 0
1.38539 -0.0616281 0
1.29629 0.00443722 0
1.27604 -0.0162709 0
1.25625 -0.0315907 0
1.50641 -0.14127 0
1.46537 -0.113312 0
1.41037 -0.0669718 0
1.38539 -0.0616281 0
1.33659 -0.0504318 0
1.30672 -0.036065 0
1.25625 -0.0315907 0
1.24308 -0.0319097 0
1.23426 -0.0253401 0
1.30751 -0.0484689 0
1.32108 0.0635209 0
1.37569 0.140389 0
1.39878 -0.100332 0
1.4197 -0.00402188 0
1.47265 0.0700719 0
1.41037 -0.0669718 0
1.38564 -0.00344131 0
1.38508 0.0471908 0
1.37569 0.140389 0
1.48395 0.229553 0
1.60832 0.262662 0
1.47265 0.0700719 0
1.53398 0.123732 0
1.6265 0.143305 0
1.38508 0.0471908 0
1.42401 0.0947689 0
1.47465 0.117207 0
1.41037 -0.0669718 0
1.38564 -0.00344131 0
1.38508 0.0471908 0
1.30672 -0.036065 0
1.29067 -0.00852762 0
1.29787 0.0157988 0
1.23426 -0.0253401 0
1.22768 -0.00768106 0
1.2309 0.00915413 0
1.38508 0.0471908 0
1.42401 0.0947689 0
1.47465 0.117207 0
1.29787 0.0157988 0
1.31461 0.0373919 0
1.3532 0.0453058 0
1.2309 0.00915413 0
1.24093 0.0252664 0
1.2578 0.0317213 0
1.29629 0.00443722 0
1.27604 -0.0162709 0
1.25625 -0.0315907 0
1.11144 0.0145402 0
1.11024 0.00401652 0
1.10545 -0.00385372 0
0.804079 0.0175918 0
0.818771 0.0116947 0
0.830597 0.00711012 0
1.25625 -0.0315907 0
1.24308 -0.0319097 0
1.23426 -0.0253401 0
1.10545 -0.00385372 0
1.09443 -0.00261401 0
1.0872 0.000470792 0
0.830597 0.00711012 0
0.836314 0.0064309 0
0.845484 0.00758412 0
0.804079 0.0175918 0
0.818771 0.0116947 0
0.830597 0.00711012 0
0.413282 0.00223157 0
0.417393 0.00231874 0
0.431152 0.00218929 0
0 0 0
0 0 0
0 0 0
0.830597 0.00711012 0
0.836314 0.0064309 0
0.845484 0.00758412 0
0.431152 0.00218929 0
0.436873 0.00280714 0
0.449583 0.0037434 0
0 0 0
0 0 0
0 0 0
1.23426 -0.0253401 0
1.22768 -0.00768106 0
1.2309 0.00915413 0
1.0872 0.000470792 0
1.07935 0.00771606 0
1.08026 0.0151209 0
0.845484 0.00758412 0
0.851963 0.0118635 0
0.86376 0.0169576 0
1.2309 0.00915413 0
1.24093 0.0252664 0
1.2578 0.0317213 0
1.08026 0.0151209 0
1.08173 0.0215668 0
1.09264 0.0240512 0
0.86376 0.0169576 0
0.872965 0.0219519 0
0.885963 0.0243674 0
0.845484 0.00758412 0
0.851963 0.0118635 0
0.86376 0.0169576 0
0.449583 0.0037434 0
0.458232 0.00530958 0
0.475308 0.00711785 0
0 0 0
0 0 0
0 0 0
0.86376 0.0169576 0
0.872965 0.0219519 0
0.885963 0.0243674 0
0.475308 0.00711785 0
0.48899 0.00817825 0
0.510148 0.00933057 0
0 0 0
0 0 0
0 0 0
0.858922 -1.40858 0
0.808512 -1.4787 0
0.708371 -1.27553 0
0.703231 -1.31024 0
0.546004 -1.32597 0
0.419606 -1.12156 0
0.565488 -1.15951 0
0.377758 -1.17809 0
0.205385 -0.985059 0
0.708371 -1.27553 0
0.551291 -1.04344 0
0.458514 -0.523146 0
0.419606 -1.12156 0
0.233459 -0.835686 0
0.137881 -0.201588 0
0.205385 -0.985059 0
-0.0150394 -0.713009 0
-0.157742 -0.0842541 0
0.565488 -1.15951 0
0.377758 -1.17809 0
0.205385 -0.985059 0
0.536283 -0.946725 0
0.289773 -0.940021 0
0.107277 -0.800797 0
0.548326 -0.710088 0
0.326287 -0.664768 0
0.115211 -0.610705 0
0.205385 -0.985059 0
-0.0150394 -0.713009 0
-0.157742 -0.0842541 0
0.107277 -0.800797 0
-0.128141 -0.447654 0
-0.27463 0.161508 0
0.115211 -0.610705 0
-0.108045 -0.295126 0
-0.244885 0.198517 0
0.458514 -0.523146 0
0.274855 -0.0342396 0
0.0884886 0.436394 0
0.137881 -0.201588 0
-0.0943731 0.21469 0
-0.314756 0.557331 0
-0.157742 -0.0842541 0
-0.388015 0.361508 0
-0.575093 0.797656 0
0.0884886 0.436394 0
-0.0893108 0.808247 0
-0.280745 1.09353 0
-0.314756 0.557331 0
-0.44695 0.946826 0
-0.539776 1.16174 0
-0.575093 0.797656 0
-0.667976 1.0897 0
-0.657376 1.1641 0
-0.157742 -0.0842541 0
-0.388015 0.361508 0
-0.575093 0.797656 0
-0.27463 0.161508 0
-0.418552 0.616704 0
-0.507643 0.905519 0
-0.244885 0.198517 0
-0.262709 0.497865 0
-0.248702 0.772292 0
-0.575093 0.797656 0
-0.667976 1.0897 0
-0.657376 1.1641 0
-0.507643 0.905519 0
-0.526445 1.10774 0
-0.348135 1.06279 0
-0.248702 0.772292 0
-0.015173 0.986255 0
0.234912 0.902014 0
0.548326 -0.710088 0
0.326287 -0.664768 0
0.115211 -0.610705 0
0.566588 -0.616795 0
0.400826 -0.501507 0
0.164597 -0.491027 0
0.844185 -0.458733 0
0.659052 -0.351049 0
0.490146 -0.28318 0
0.115211 -0.610705 0
-0.108045 -0.295126 0
-0.244885 0.198517 0
0.164597 -0.491027 0
0.0668667 -0.143809 0
0.0410536 0.282971 0
0.490146 -0.28318 0
0.514684 0.0225602 0
0.521113 0.165772 0
0.844185 -0.458733 0
0.659052 -0.351049 0
0.490146 -0.28318 0
1.20107 -0.341474 0
1.09011 -0.340215 0
0.961976 -0.309864 0
1.6272 -0.265903 0
1.55392 -0.259856 0
1.43707 -0.248784 0
0.490146 -0.28318 0
0.514684 0.0225602 0
0.521113 0.165772 0
0.961976 -0.309864 0
1.01338 -0.183445 0
1.0357 -0.0778225 0
1.43707 -0.248784 0
1.39545 -0.142748 0
1.30751 -0.0484689 0
-0.244885 0.198517 0
-0.262709 0.497865 0
-0.248702 0.772292 0
0.0410536 0.282971 0
0.172827 0.519603 0
0.442566 0.710948 0
0.521113 0.165772 0
0.789323 0.275605 0
0.972006 0.363851 0
-0.248702 0.772292 0
-0.015173 0.986255 0
0.234912 0.902014 0
0.442566 0.710948 0
0.674856 0.776118 0
0.809204 0.757272 0
0.972006 0.363851 0
1.23891 0.529832 0
1.4175 0.545254 0
0.521113 0.165772 0
0.789323 0.275605 0
0.972006 0.363851 0
1.0357 -0.0778225 0
1.2027 0.109887 0
1.30274 0.25176 0
1.30751 -0.0484689 0
1.32108 0.0635209 0
1.37569 0.140389 0
0.972006 0.363851 0
1.23891 0.529832 0
1.4175 0.545254 0
1.30274 0.25176 0
1.47664 0.366476 0
1.64527 0.422343 0
1.37569 0.140389 0
1.48395 0.229553 0
1.60832 0.262662 0
1.29565 -0.53236 0
1.48053 -0.610872 0
1.70905 -0.648689 0
1.42345 -0.697618 0
1.58571 -0.781051 0
1.73228 -0.794343 0
1.49957 -0.855267 0
1.57593 -0.908154 0
1.69914 -0.923314 0
1.70905 -0.648689 0
1.86785 -0.632476 0
1.97158 -0.55437 0
1.73228 -0.794343 0
1.82853 -0.783128 0
2.00227 -0.739517 0
1.69914 -0.923314 0
1.93211 -0.942008 0
2.23318 -0.870249 0
1.49957 -0.855267 0
1.57593 -0.908154 0
1.69914 -0.923314 0
1.45877 -0.985622 0
1.55179 -1.02457 0
1.79586 -1.1388 0
1.3768 -1.05986 0
1.57775 -1.17672 0
1.80733 -1.33175 0
1.69914 -0.923314 0
1.93211 -0.942008 0
2.23318 -0.870249 0
1.79586 -1.1388 0
2.00316 -1.11345 0
2.07649 -0.945192 0
1.80733 -1.33175 0
1.80632 -1.17514 0
1.73171 -0.929953 0
1.97158 -0.55437 0
2.02757 -0.470369 0
2.10878 -0.360407 0
2.00227 -0.739517 0
2.15632 -0.639709 0
2.27151 -0.473314 0
2.23318 -0.870249 0
2.26916 -0.674739 0
2.20702 -0.445734 0
2.10878 -0.360407 0
2.15501 -0.230726 0
2.18839 -0.0929091 0
2.27151 -0.473314 0
2.26136 -0.278361 0
2.21458 -0.0864756 0
2.20702 -0.445734 0
1.96179 -0.22009 0
1.69776 -0.0346051 0
2.23318 -0.870249 0
2.26916 -0.674739 0
2.20702 -0.445734 0
2.07649 -0.945192 0
1.91443 -0.657548 0
1.73089 -0.328671 0
1.73171 -0.929953 0
1.58897 -0.561513 0
1.40198 -0.129177 0
2.20702 -0.445734 0
1.96179 -0.22009 0
1.69776 -0.0346051 0
1.73089 -0.328671 0
1.43696 0.0125937 0
1.16324 0.224009 0
1.40198 -0.129177 0
1.15576 0.21661 0
0.868836 0.491415 0
1.3768 -1.05986 0
1.57775 -1.17672 0
1.80733 -1.33175 0
1.2691 -1.18765 0
1.47683 -1.37838 0
1.5321 -1.4096 0
1.14972 -1.3266 0
1.29702 -1.51949 0
1.2697 -1.43637 0
1.80733 -1.33175 0
1.80632 -1.17514 0
1.73171 -0.929953 0
1.5321 -1.4096 0
1.5173 -1.1854 0
1.52042 -0.857418 0
1.2697 -1.43637 0
1.29139 -1.17965 0
1.18104 -0.658901 0
1.14972 -1.3266 0
1.29702 -1.51949 0
1.2697 -1.43637 0
0.998082 -1.3845 0
1.07098 -1.52421 0
1.00563 -1.35747 0
0.858922 -1.40858 0
0.808512 -1.4787 0
0.708371 -1.27553 0
1.2697 -1.43637 0
1.29139 -1.17965 0
1.18104 -0.658901 0
1.00563 -1.35747 0
0.915281 -1.06425 0
0.723728 -0.549101 0
0.708371 -1.27553 0
0.551291 -1.04344 0
0.458514 -0.523146 0
1.73171 -0.929953 0
1.58897 -0.561513 0
1.40198 -0.129177 0
1.52042 -0.857418 0
1.32361 -0.384436 0
1.13069 0.0252629 0
1.18104 -0.658901 0
0.914006 -0.209775 0
0.791792 0.162852 0
1.40198 -0.129177 0
1.15576 0.21661 0
0.868836 0.491415 0
1.13069 0.0252629 0
0.909526 0.340123 0
0.639884 0.662761 0
0.791792 0.162852 0
0.56942 0.478319 0
0.338632 0.841154 0
1.18104 -0.658901 0
0.914006 -0.209775 0
0.791792 0.162852 0
0.723728 -0.549101 0
0.563953 -0.167781 0
0.459974 0.304848 0
0.458514 -0.523146 0
0.274855 -0.0342396 0
0.0884886 0.436394 0
0.791792 0.162852 0
0.56942 0.478319 0
0.338632 0.841154 0
0.459974 0.304848 0
0.261635 0.615106 0
0.0375108 0.935071 0
0.0884886 0.436394 0
-0.0893108 0.808247 0
-0.280745 1.09353 0
0 0 0
0 0 0
0 0 0
0.195017 -0.02245 0
0.253659 -0.0246684 0
0.288965 -0.0258293 0
0.456742 -0.0607557 0
0.519084 -0.0737415 0
0.573727 -0.0850097 0
0 0 0
0 0 0
0 0 0
0.288965 -0.0258293 0