# vtk DataFile Version 3.0
#This file was generated by the deal.II library on 2025/1/8 at 8:30:33
ASCII
DATASET UNSTRUCTURED_GRID

POINTS 8640 double
1.1 1.1 0
0.9625 1.09063 0
0.825 1.08125 0
1.0875 0.9625 0
0.951563 0.954297 0
0.815625 0.946094 0
1.075 0.825 0
0.940625 0.817969 0
0.80625 0.810937 0
0.825 1.08125 0
0.6875 1.07187 0
0.55 1.0625 0
0.815625 0.946094 0
0.679688 0.937891 0
0.54375 0.929688 0
0.80625 0.810937 0
0.671875 0.803906 0
0.5375 0.796875 0
1.075 0.825 0
0.940625 0.817969 0
0.80625 0.810937 0
1.0625 0.6875 0
0.929688 0.681641 0
0.796875 0.675781 0
1.05 0.55 0
0.91875 0.545313 0
0.7875 0.540625 0
0.80625 0.810937 0
0.671875 0.803906 0
0.5375 0.796875 0
0.796875 0.675781 0
0.664062 0.669922 0
0.53125 0.664062 0
0.7875 0.540625 0
0.65625 0.535937 0
0.525 0.53125 0
0.55 1.0625 0
0.4125 1.05313 0
0.275 1.04375 0
0.54375 0.929688 0
0.407813 0.921484 0
0.271875 0.913281 0
0.5375 0.796875 0
0.403125 0.789844 0
0.26875 0.782813 0
0.275 1.04375 0
0.1375 1.03437 0
0 1.025 0
0.271875 0.913281 0
0.135938 0.905078 0
0 0.896875 0
0.26875 0.782813 0
0.134375 0.775781 0
0 0.76875 0
0.5375 0.796875 0
0.403125 0.789844 0
0.26875 0.782813 0
0.53125 0.664062 0
0.398438 0.658203 0
0.265625 0.652344 0
0.525 0.53125 0
0.39375 0.526563 0
0.2625 0.521875 0
0.26875 0.782813 0
0.134375 0.775781 0
0 0.76875 0
0.265625 0.652344 0
0.132812 0.646484 0
0 0.640625 0
0.2625 0.521875 0
0.13125 0.517187 0
0 0.5125 0
1.05 0.55 0
0.91875 0.545313 0
0.7875 0.540625 0
1.0375 0.4125 0
0.907812 0.408984 0
0.778125 0.405469 0
1.025 0.275 0
0.896875 0.272656 0
0.76875 0.270313 0
0.7875 0.540625 0
0.65625 0.535937 0
0.525 0.53125 0
0.778125 0.405469 0
0.648438 0.401953 0
0.51875 0.398438 0
0.76875 0.270313 0
0.640625 0.267969 0
0.5125 0.265625 0
1.025 0.275 0
0.896875 0.272656 0
0.76875 0.270313 0
1.0125 0.1375 0
0.885937 0.136328 0
0.759375 0.135156 0
1 0 0
0.875 0 0
0.75 0 0
0.76875 0.270313 0
0.640625 0.267969 0
0.5125 0.265625 0
0.759375 0.135156 0
0.632812 0.133984 0
0.50625 0.132812 0
0.75 0 0
0.625 0 0
0.5 0 0
0.525 0.53125 0
0.39375 0.526563 0
0.2625 0.521875 0
0.51875 0.398438 0
0.389062 0.394922 0
0.259375 0.391406 0
0.5125 0.265625 0
0.384375 0.263281 0
0.25625 0.260937 0
0.2625 0.521875 0
0.13125 0.517187 0
0 0.5125 0
0.259375 0.391406 0
0.129688 0.387891 0
0 0.384375 0
0.25625 0.260937 0
0.128125 0.258594 0
0 0.25625 0
0.5125 0.265625 0
0.384375 0.263281 0
0.25625 0.260937 0
0.50625 0.132812 0
0.379687 0.131641 0
0.253125 0.130469 0
0.5 0 0
0.375 0 0
0.25 0 0
0.25625 0.260937 0
0.128125 0.258594 0
0 0.25625 0
0.253125 0.130469 0
0.126562 0.129297 0
0 0.128125 0
0.25 0 0
0.125 0 0
0 0 0
2 1 0
1.8875 1.0125 0
1.775 1.025 0
2 0.875 0
1.88594 0.885938 0
1.77188 0.896875 0
2 0.75 0
1.88437 0.759375 0
1.76875 0.76875 0
1.775 1.025 0
1.6625 1.0375 0
1.55 1.05 0
1.77188 0.896875 0
1.65781 0.907813 0
1.54375 0.91875 0
1.76875 0.76875 0
1.65313 0.778125 0
1.5375 0.7875 0
2 0.75 0
1.88437 0.759375 0
1.76875 0.76875 0
2 0.625 0
1.88281 0.632812 0
1.76562 0.640625 0
2 0.5 0
1.88125 0.50625 0
1.7625 0.5125 0
1.76875 0.76875 0
1.65313 0.778125 0
1.5375 0.7875 0
1.76562 0.640625 0
1.64844 0.648438 0
1.53125 0.65625 0
1.7625 0.5125 0
1.64375 0.51875 0
1.525 0.525 0
1.55 1.05 0
1.4375 1.0625 0
1.325 1.075 0
1.54375 0.91875 0
1.42969 0.929688 0
1.31563 0.940625 0
1.5375 0.7875 0
1.42188 0.796875 0
1.30625 0.80625 0
1.325 1.075 0
1.2125 1.0875 0
1.1 1.1 0
1.31563 0.940625 0
1.20156 0.951563 0
1.0875 0.9625 0
1.30625 0.80625 0
1.19063 0.815625 0
1.075 0.825 0
1.5375 0.7875 0
1.42188 0.796875 0
1.30625 0.80625 0
1.53125 0.65625 0
1.41406 0.664062 0
1.29688 0.671875 0
1.525 0.525 0
1.40625 0.53125 0
1.2875 0.5375 0
1.30625 0.80625 0
1.19063 0.815625 0
1.075 0.825 0
1.29688 0.671875 0
1.17969 0.679688 0
1.0625 0.6875 0
1.2875 0.5375 0
1.16875 0.54375 0
1.05 0.55 0
2 0.5 0
1.88125 0.50625 0
1.7625 0.5125 0
2 0.375 0
1.87969 0.379687 0
1.75938 0.384375 0
2 0.25 0
1.87813 0.253125 0
1.75625 0.25625 0
1.7625 0.5125 0
1.64375 0.51875 0
1.525 0.525 0
1.75938 0.384375 0
1.63906 0.389063 0
1.51875 0.39375 0
1.75625 0.25625 0
1.63438 0.259375 0
1.5125 0.2625 0
2 0.25 0
1.87813 0.253125 0
1.75625 0.25625 0
2 0.125 0
1.87656 0.126562 0
1.75313 0.128125 0
2 0 0
1.875 0 0
1.75 0 0
1.75625 0.25625 0
1.63438 0.259375 0
1.5125 0.2625 0
1.75313 0.128125 0
1.62969 0.129688 0
1.50625 0.13125 0
1.75 0 0
1.625 0 0
1.5 0 0
1.525 0.525 0
1.40625 0.53125 0
1.2875 0.5375 0
1.51875 0.39375 0
1.39844 0.398438 0
1.27813 0.403125 0
1.5125 0.2625 0
1.39062 0.265625 0
1.26875 0.26875 0
1.2875 0.5375 0
1.16875 0.54375 0
1.05 0.55 0
1.27813 0.403125 0
1.15781 0.407813 0
1.0375 0.4125 0
1.26875 0.26875 0
1.14688 0.271875 0
1.025 0.275 0
1.5125 0.2625 0
1.39062 0.265625 0
1.26875 0.26875 0
1.50625 0.13125 0
1.38281 0.132812 0
1.25937 0.134375 0
1.5 0 0
1.375 0 0
1.25 0 0
1.26875 0.26875 0
1.14688 0.271875 0
1.025 0.275 0
1.25937 0.134375 0
1.13594 0.135938 0
1.0125 0.1375 0
1.25 0 0
1.125 0 0
1 0 0
1 2 0
0.875 2.00625 0
0.75 2.0125 0
1.0125 1.8875 0
0.885938 1.8918 0
0.759375 1.89609 0
1.025 1.775 0
0.896875 1.77734 0
0.76875 1.77969 0
0.75 2.0125 0
0.625 2.01875 0
0.5 2.025 0
0.759375 1.89609 0
0.632812 1.90039 0
0.50625 1.90469 0
0.76875 1.77969 0
0.640625 1.78203 0
0.5125 1.78437 0
1.025 1.775 0
0.896875 1.77734 0
0.76875 1.77969 0
1.0375 1.6625 0
0.907813 1.66289 0
0.778125 1.66328 0
1.05 1.55 0
0.91875 1.54844 0
0.7875 1.54688 0
0.76875 1.77969 0
0.640625 1.78203 0
0.5125 1.78437 0
0.778125 1.66328 0
0.648438 1.66367 0
0.51875 1.66406 0
0.7875 1.54688 0
0.65625 1.54531 0
0.525 1.54375 0
0.5 2.025 0
0.375 2.03125 0
0.25 2.0375 0
0.50625 1.90469 0
0.379687 1.90898 0
0.253125 1.91328 0
0.5125 1.78437 0
0.384375 1.78672 0
0.25625 1.78906 0
0.25 2.0375 0
0.125 2.04375 0
0 2.05 0
0.253125 1.91328 0
0.126562 1.91758 0
0 1.92187 0
0.25625 1.78906 0
0.128125 1.79141 0
0 1.79375 0
0.5125 1.78437 0
0.384375 1.78672 0
0.25625 1.78906 0
0.51875 1.66406 0
0.389062 1.66445 0
0.259375 1.66484 0
0.525 1.54375 0
0.39375 1.54219 0
0.2625 1.54062 0
0.25625 1.78906 0
0.128125 1.79141 0
0 1.79375 0
0.259375 1.66484 0
0.129688 1.66523 0
0 1.66562 0
0.2625 1.54062 0
0.13125 1.53906 0
0 1.5375 0
1.05 1.55 0
0.91875 1.54844 0
0.7875 1.54688 0
1.0625 1.4375 0
0.929688 1.43398 0
0.796875 1.43047 0
1.075 1.325 0
0.940625 1.31953 0
0.80625 1.31406 0
0.7875 1.54688 0
0.65625 1.54531 0
0.525 1.54375 0
0.796875 1.43047 0
0.664062 1.42695 0
0.53125 1.42344 0
0.80625 1.31406 0
0.671875 1.30859 0
0.5375 1.30312 0
1.075 1.325 0
0.940625 1.31953 0
0.80625 1.31406 0
1.0875 1.2125 0
0.951563 1.20508 0
0.815625 1.19766 0
1.1 1.1 0
0.9625 1.09063 0
0.825 1.08125 0
0.80625 1.31406 0
0.671875 1.30859 0
0.5375 1.30312 0
0.815625 1.19766 0
0.679688 1.19023 0
0.54375 1.18281 0
0.825 1.08125 0
0.6875 1.07187 0
0.55 1.0625 0
0.525 1.54375 0
0.39375 1.54219 0
0.2625 1.54062 0
0.53125 1.42344 0
0.398438 1.41992 0
0.265625 1.41641 0
0.5375 1.30312 0
0.403125 1.29766 0
0.26875 1.29219 0
0.2625 1.54062 0
0.13125 1.53906 0
0 1.5375 0
0.265625 1.41641 0
0.132812 1.41289 0
0 1.40937 0
0.26875 1.29219 0
0.134375 1.28672 0
0 1.28125 0
0.5375 1.30312 0
0.403125 1.29766 0
0.26875 1.29219 0
0.54375 1.18281 0
0.407813 1.17539 0
0.271875 1.16797 0
0.55 1.0625 0
0.4125 1.05313 0
0.275 1.04375 0
0.26875 1.29219 0
0.134375 1.28672 0
0 1.28125 0
0.271875 1.16797 0
0.135938 1.16055 0
0 1.15312 0
0.275 1.04375 0
0.1375 1.03437 0
0 1.025 0
2.9 1.1 0
2.7875 1.0875 0
2.675 1.075 0
2.9125 0.9625 0
2.79844 0.951563 0
2.68438 0.940625 0
2.925 0.825 0
2.80938 0.815625 0
2.69375 0.80625 0
2.675 1.075 0
2.5625 1.0625 0
2.45 1.05 0
2.68438 0.940625 0
2.57031 0.929688 0
2.45625 0.91875 0
2.69375 0.80625 0
2.57812 0.796875 0
2.4625 0.7875 0
2.925 0.825 0
2.80938 0.815625 0
2.69375 0.80625 0
2.9375 0.6875 0
2.82031 0.679688 0
2.70312 0.671875 0
2.95 0.55 0
2.83125 0.54375 0
2.7125 0.5375 0
2.69375 0.80625 0
2.57812 0.796875 0
2.4625 0.7875 0
2.70312 0.671875 0
2.58594 0.664062 0
2.46875 0.65625 0
2.7125 0.5375 0
2.59375 0.53125 0
2.475 0.525 0
2.45 1.05 0
2.3375 1.0375 0
2.225 1.025 0
2.45625 0.91875 0
2.34219 0.907813 0
2.22813 0.896875 0
2.4625 0.7875 0
2.34688 0.778125 0
2.23125 0.76875 0
2.225 1.025 0
2.1125 1.0125 0
2 1 0
2.22813 0.896875 0
2.11406 0.885938 0
2 0.875 0
2.23125 0.76875 0
2.11563 0.759375 0
2 0.75 0
2.4625 0.7875 0
2.34688 0.778125 0
2.23125 0.76875 0
2.46875 0.65625 0
2.35156 0.648438 0
2.23438 0.640625 0
2.475 0.525 0
2.35625 0.51875 0
2.2375 0.5125 0
2.23125 0.76875 0
2.11563 0.759375 0
2 0.75 0
2.23438 0.640625 0
2.11719 0.632812 0
2 0.625 0
2.2375 0.5125 0
2.11875 0.50625 0
2 0.5 0
2.95 0.55 0
2.83125 0.54375 0
2.7125 0.5375 0
2.9625 0.4125 0
2.84219 0.407813 0
2.72188 0.403125 0
2.975 0.275 0
2.85313 0.271875 0
2.73125 0.26875 0
2.7125 0.5375 0
2.59375 0.53125 0
2.475 0.525 0
2.72188 0.403125 0
2.60156 0.398438 0
2.48125 0.39375 0
2.73125 0.26875 0
2.60938 0.265625 0
2.4875 0.2625 0
2.975 0.275 0
2.85313 0.271875 0
2.73125 0.26875 0
2.9875 0.1375 0
2.86406 0.135938 0
2.74063 0.134375 0
3 0 0
2.875 0 0
2.75 0 0
2.73125 0.26875 0
2.60938 0.265625 0
2.4875 0.2625 0
2.74063 0.134375 0
2.61719 0.132812 0
2.49375 0.13125 0
2.75 0 0
2.625 0 0
2.5 0 0
2.475 0.525 0
2.35625 0.51875 0
2.2375 0.5125 0
2.48125 0.39375 0
2.36094 0.389063 0
2.24062 0.384375 0
2.4875 0.2625 0
2.36562 0.259375 0
2.24375 0.25625 0
2.2375 0.5125 0
2.11875 0.50625 0
2 0.5 0
2.24062 0.384375 0
2.12031 0.379687 0
2 0.375 0
2.24375 0.25625 0
2.12188 0.253125 0
2 0.25 0
2.4875 0.2625 0
2.36562 0.259375 0
2.24375 0.25625 0
2.49375 0.13125 0
2.37031 0.129688 0
2.24688 0.128125 0
2.5 0 0
2.375 0 0
2.25 0 0
2.24375 0.25625 0
2.12188 0.253125 0
2 0.25 0
2.24688 0.128125 0
2.12344 0.126562 0
2 0.125 0
2.25 0 0
2.125 0 0
2 0 0
4 1 0
3.8625 1.0125 0
3.725 1.025 0
4 0.875 0
3.86406 0.885938 0
3.72813 0.896875 0
4 0.75 0
3.86563 0.759375 0
3.73125 0.76875 0
3.725 1.025 0
3.5875 1.0375 0
3.45 1.05 0
3.72813 0.896875 0
3.59219 0.907813 0
3.45625 0.91875 0
3.73125 0.76875 0
3.59688 0.778125 0
3.4625 0.7875 0
4 0.75 0
3.86563 0.759375 0
3.73125 0.76875 0
4 0.625 0
3.86719 0.632812 0
[...]
POINT_DATA 8640
VECTORS v double
1.25537 -0.304798 0
1.23495 -0.259737 0
1.20007 -0.20974 0
1.18367 -0.268822 0
1.15142 -0.229419 0
1.11734 -0.192239 0
1.09577 -0.23241 0
1.05807 -0.200217 0
1.02329 -0.168693 0
1.20007 -0.20974 0
1.18833 -0.173039 0
1.16643 -0.131671 0
1.11734 -0.192239 0
1.09622 -0.156591 0
1.07375 -0.123444 0
1.02329 -0.168693 0
0.994771 -0.138028 0
0.970968 -0.109423 0
1.09577 -0.23241 0
1.05807 -0.200217 0
1.02329 -0.168693 0
0.982985 -0.182178 0
0.942175 -0.158865 0
0.904821 -0.135961 0
0.847744 -0.14143 0
0.808066 -0.124958 0
0.771544 -0.108089 0
1.02329 -0.168693 0
0.994771 -0.138028 0
0.970968 -0.109423 0
0.904821 -0.135961 0
0.874136 -0.112931 0
0.848142 -0.0902189 0
0.771544 -0.108089 0
0.740757 -0.0903975 0
0.714382 -0.0726886 0
1.16643 -0.131671 0
1.15724 -0.0997094 0
1.1407 -0.0635286 0
1.07375 -0.123444 0
1.0591 -0.0925045 0
1.04335 -0.0607937 0
0.970968 -0.109423 0
0.950792 -0.0810499 0
0.935625 -0.0535159 0
1.1407 -0.0635286 0
1.13502 -0.0331605 0
1.125 0 0
1.04335 -0.0607937 0
1.03435 -0.0300121 0
1.02539 0 0
0.935625 -0.0535159 0
0.922062 -0.0260736 0
0.914062 0 0
0.970968 -0.109423 0
0.950792 -0.0810499 0
0.935625 -0.0535159 0
0.848142 -0.0902189 0
0.827172 -0.0671018 0
0.811648 -0.0447582 0
0.714382 -0.0726886 0
0.693057 -0.0545527 0
0.677123 -0.0367149 0
0.935625 -0.0535159 0
0.922062 -0.0260736 0
0.914062 0 0
0.811648 -0.0447582 0
0.798536 -0.0222406 0
0.791016 0 0
0.677123 -0.0367149 0
0.663959 -0.0184671 0
0.65625 0 0
0.847744 -0.14143 0
0.808066 -0.124958 0
0.771544 -0.108089 0
0.699821 -0.0963766 0
0.660355 -0.0853661 0
0.623701 -0.0739493 0
0.528465 -0.0567467 0
0.492037 -0.0508701 0
0.457962 -0.0447645 0
0.771544 -0.108089 0
0.740757 -0.0903975 0
0.714382 -0.0726886 0
0.623701 -0.0739493 0
0.592499 -0.0620373 0
0.565836 -0.0499851 0
0.457962 -0.0447645 0
0.428715 -0.0382184 0
0.403717 -0.0315566 0
0.528465 -0.0567467 0
0.492037 -0.0508701 0
0.457962 -0.0447645 0
0.320653 -0.0178032 0
0.291281 -0.0156754 0
0.264848 -0.0136449 0
0 0 0
0 0 0
0 0 0
0.457962 -0.0447645 0
0.428715 -0.0382184 0
0.403717 -0.0315566 0
0.264848 -0.0136449 0
0.241128 -0.0114036 0
0.221829 -0.00927985 0
0 0 0
0 0 0
0 0 0
0.714382 -0.0726886 0
0.693057 -0.0545527 0
0.677123 -0.0367149 0
0.565836 -0.0499851 0
0.544197 -0.0373889 0
0.528383 -0.0248619 0
0.403717 -0.0315566 0
0.3833 -0.0244096 0
0.368533 -0.0172052 0
0.677123 -0.0367149 0
0.663959 -0.0184671 0
0.65625 0 0
0.528383 -0.0248619 0
0.516099 -0.0121411 0
0.509766 0 0
0.368533 -0.0172052 0
0.357141 -0.00930534 0
0.351562 0 0
0.403717 -0.0315566 0
0.3833 -0.0244096 0
0.368533 -0.0172052 0
0.221829 -0.00927985 0
0.205205 -0.00683249 0
0.194178 -0.00453319 0
0 0 0
0 0 0
0 0 0
0.368533 -0.0172052 0
0.357141 -0.00930534 0
0.351562 0 0
0.194178 -0.00453319 0
0.185168 -0.00203306 0
0.181641 0 0
0 0 0
0 0 0
0 0 0
1.75097 -0.350429 0
1.69786 -0.40744 0
1.59712 -0.436308 0
1.60695 -0.266012 0
1.54883 -0.310904 0
1.47608 -0.341802 0
1.45628 -0.201791 0
1.41375 -0.245216 0
1.36186 -0.276366 0
1.59712 -0.436308 0
1.53293 -0.442434 0
1.43845 -0.430262 0
1.47608 -0.341802 0
1.41533 -0.355041 0
1.34457 -0.356137 0
1.36186 -0.276366 0
1.3116 -0.292416 0
1.25597 -0.296487 0
1.45628 -0.201791 0
1.41375 -0.245216 0
1.36186 -0.276366 0
1.32809 -0.151722 0
1.29015 -0.179859 0
1.24294 -0.201289 0
1.15575 -0.0966449 0
1.12057 -0.120529 0
1.07932 -0.139629 0
1.36186 -0.276366 0
1.3116 -0.292416 0
1.25597 -0.296487 0
1.24294 -0.201289 0
1.19546 -0.21344 0
1.14273 -0.218221 0
1.07932 -0.139629 0
1.0382 -0.152662 0
0.993548 -0.159994 0
1.43845 -0.430262 0
1.38948 -0.409238 0
1.32434 -0.375249 0
1.34457 -0.356137 0
1.29889 -0.343218 0
1.24657 -0.323606 0
1.25597 -0.296487 0
1.21093 -0.289115 0
1.16536 -0.274574 0
1.32434 -0.375249 0
1.2964 -0.343768 0
1.25537 -0.304798 0
1.24657 -0.323606 0
1.21688 -0.297072 0
1.18367 -0.268822 0
1.16536 -0.274574 0
1.12985 -0.254654 0
1.09577 -0.23241 0
1.25597 -0.296487 0
1.21093 -0.289115 0
1.16536 -0.274574 0
1.14273 -0.218221 0
1.09882 -0.215743 0
1.05376 -0.208391 0
0.993548 -0.159994 0
0.954668 -0.161473 0
0.914974 -0.158657 0
1.16536 -0.274574 0
1.12985 -0.254654 0
1.09577 -0.23241 0
1.05376 -0.208391 0
1.01764 -0.19692 0
0.982985 -0.182178 0
0.914974 -0.158657 0
0.880906 -0.151592 0
0.847744 -0.14143 0
1.15575 -0.0966449 0
1.12057 -0.120529 0
1.07932 -0.139629 0
0.991597 -0.0673616 0
0.962062 -0.0838656 0
0.925691 -0.0969455 0
0.806125 -0.0302612 0
0.778783 -0.0411371 0
0.744646 -0.0501195 0
1.07932 -0.139629 0
1.0382 -0.152662 0
0.993548 -0.159994 0
0.925691 -0.0969455 0
0.888562 -0.105376 0
0.846532 -0.109704 0
0.744646 -0.0501195 0
0.709519 -0.0563647 0
0.669785 -0.0601753 0
0.806125 -0.0302612 0
0.778783 -0.0411371 0
0.744646 -0.0501195 0
0.522061 -0.00922955 0
0.508815 -0.0129962 0
0.486033 -0.0161535 0
0 0 0
0 0 0
0 0 0
0.744646 -0.0501195 0
0.709519 -0.0563647 0
0.669785 -0.0601753 0
0.486033 -0.0161535 0
0.463122 -0.0184124 0
0.43307 -0.0195799 0
0 0 0
0 0 0
0 0 0
0.993548 -0.159994 0
0.954668 -0.161473 0
0.914974 -0.158657 0
0.846532 -0.109704 0
0.808766 -0.110126 0
0.768969 -0.107791 0
0.669785 -0.0601753 0
0.633635 -0.0616927 0
0.595428 -0.0615908 0
0.914974 -0.158657 0
0.880906 -0.151592 0
0.847744 -0.14143 0
0.768969 -0.107791 0
0.734129 -0.103164 0
0.699821 -0.0963766 0
0.595428 -0.0615908 0
0.561876 -0.05996 0
0.528465 -0.0567467 0
0.669785 -0.0601753 0
0.633635 -0.0616927 0
0.595428 -0.0615908 0
0.43307 -0.0195799 0
0.406023 -0.0200753 0
0.375442 -0.0197667 0
0 0 0
0 0 0
0 0 0
0.595428 -0.0615908 0
0.561876 -0.05996 0
0.528465 -0.0567467 0
0.375442 -0.0197667 0
0.348187 -0.0191891 0
0.320653 -0.0178032 0
0 0 0
0 0 0
0 0 0
1.24825 -0.0707118 0
1.32061 -0.0621452 0
1.37759 -0.0533421 0
1.26568 -0.150486 0
1.32878 -0.122289 0
1.38184 -0.0979912 0
1.26699 -0.208055 0
1.32209 -0.167072 0
1.37106 -0.133122 0
1.37759 -0.0533421 0
1.4191 -0.0457707 0
1.44981 -0.0372978 0
1.38184 -0.0979912 0
1.41869 -0.0797125 0
1.44813 -0.0627074 0
1.37106 -0.133122 0
1.40381 -0.106868 0
1.43206 -0.0829902 0
1.26699 -0.208055 0
1.32209 -0.167072 0
1.37106 -0.133122 0
1.28571 -0.277785 0
1.32813 -0.220649 0
1.36583 -0.173921 0
1.30562 -0.304501 0
1.32965 -0.243837 0
1.35185 -0.192945 0
1.37106 -0.133122 0
1.40381 -0.106868 0
1.43206 -0.0829902 0
1.36583 -0.173921 0
1.39104 -0.138609 0
1.41349 -0.106748 0
1.35185 -0.192945 0
1.36805 -0.154128 0
1.38348 -0.118025 0
1.44981 -0.0372978 0
1.47273 -0.0288702 0
1.48704 -0.0193159 0
1.44813 -0.0627074 0
1.46858 -0.0475025 0
1.48277 -0.0314698 0
1.43206 -0.0829902 0
1.45079 -0.061614 0
1.4657 -0.0403246 0
1.48704 -0.0193159 0
1.49741 -0.00981294 0
1.5 0 0
1.48277 -0.0314698 0
1.49123 -0.0156719 0
1.49414 0 0
1.4657 -0.0403246 0
1.47312 -0.0200684 0
1.47656 0 0
1.43206 -0.0829902 0
1.45079 -0.061614 0
1.4657 -0.0403246 0
1.41349 -0.106748 0
1.4278 -0.0792632 0
1.43992 -0.0521303 0
1.38348 -0.118025 0
1.39301 -0.0870535 0
1.40196 -0.0565344 0
1.4657 -0.0403246 0
1.47312 -0.0200684 0
1.47656 0 0
1.43992 -0.0521303 0
1.44469 -0.0264451 0
1.44727 0 0
1.40196 -0.0565344 0
1.40451 -0.0285701 0
1.40625 0 0
1.30562 -0.304501 0
1.32965 -0.243837 0
1.35185 -0.192945 0
1.30435 -0.332097 0
1.31864 -0.270707 0
1.32665 -0.215615 0
1.307 -0.333886 0
1.30652 -0.274289 0
1.29798 -0.219503 0
1.35185 -0.192945 0
1.36805 -0.154128 0
1.38348 -0.118025 0
1.32665 -0.215615 0
1.33715 -0.17405 0
1.34395 -0.133002 0
1.29798 -0.219503 0
1.29954 -0.177241 0
1.29644 -0.13504 0
1.307 -0.333886 0
1.30652 -0.274289 0
1.29798 -0.219503 0
1.28499 -0.323935 0
1.27326 -0.273993 0
1.25274 -0.220229 0
1.25537 -0.304798 0
1.23495 -0.259737 0
1.20007 -0.20974 0
1.29798 -0.219503 0
1.29954 -0.177241 0
1.29644 -0.13504 0
1.25274 -0.220229 0
1.24677 -0.181263 0
1.23601 -0.138032 0
1.20007 -0.20974 0
1.18833 -0.173039 0
1.16643 -0.131671 0
1.38348 -0.118025 0
1.39301 -0.0870535 0
1.40196 -0.0565344 0
1.34395 -0.133002 0
1.34961 -0.0989318 0
1.35294 -0.0646207 0
1.29644 -0.13504 0
1.29639 -0.100274 0
1.29328 -0.0646718 0
1.40196 -0.0565344 0
1.40451 -0.0285701 0
1.40625 0 0
1.35294 -0.0646207 0
1.35407 -0.0337364 0
1.35352 0 0
1.29328 -0.0646718 0
1.29195 -0.0332247 0
1.28906 0 0
1.29644 -0.13504 0
1.29639 -0.100274 0
1.29328 -0.0646718 0
1.23601 -0.138032 0
1.23063 -0.104141 0
1.22217 -0.0670234 0
1.16643 -0.131671 0
1.15724 -0.0997094 0
1.1407 -0.0635286 0
1.29328 -0.0646718 0
1.29195 -0.0332247 0
1.28906 0 0
1.22217 -0.0670234 0
1.21824 -0.0354714 0
1.21289 0 0
1.1407 -0.0635286 0
1.13502 -0.0331605 0
1.125 0 0
1.79973 0.410748 0
1.93495 0.298782 0
1.96264 0.197752 0
1.76768 0.333218 0
1.80774 0.272393 0
1.84587 0.190497 0
1.50163 0.280289 0
1.5612 0.231862 0
1.59593 0.173713 0
1.96264 0.197752 0
2.0207 0.0863014 0
1.99311 -0.0119036 0
1.84587 0.190497 0
1.84646 0.103296 0
1.83805 0.0100576 0
1.59593 0.173713 0
1.61887 0.104949 0
1.6184 0.0333498 0
1.50163 0.280289 0
1.5612 0.231862 0
1.59593 0.173713 0
1.38306 0.175441 0
1.41978 0.145196 0
1.44719 0.105457 0
1.25079 0.146732 0
1.27458 0.125195 0
1.29018 0.0973841 0
1.59593 0.173713 0
1.61887 0.104949 0
1.6184 0.0333498 0
1.44719 0.105457 0
1.45973 0.0611969 0
1.45994 0.01283 0
1.29018 0.0973841 0
1.29411 0.0640082 0
1.28921 0.028095 0
1.99311 -0.0119036 0
1.99302 -0.112259 0
1.91044 -0.202132 0
1.83805 0.0100576 0
1.79951 -0.0765899 0
1.74719 -0.154271 0
1.6184 0.0333498 0
1.60145 -0.0360887 0
1.56515 -0.0999731 0
1.91044 -0.202132 0
1.85452 -0.280915 0
1.75097 -0.350429 0
1.74719 -0.154271 0
1.68644 -0.216314 0
1.60695 -0.266012 0
1.56515 -0.0999731 0
1.51543 -0.153576 0
1.45628 -0.201791 0
1.6184 0.0333498 0
1.60145 -0.0360887 0
1.56515 -0.0999731 0
1.45994 0.01283 0
1.4447 -0.0344036 0
1.41673 -0.0801482 0
1.28921 0.028095 0
1.27122 -0.0080014 0
1.24371 -0.0422918 0
1.56515 -0.0999731 0
1.51543 -0.153576 0
1.45628 -0.201791 0
1.41673 -0.0801482 0
1.37848 -0.119499 0
1.32809 -0.151722 0
1.24371 -0.0422918 0
1.2041 -0.0716629 0
1.15575 -0.0966449 0
1.25079 0.146732 0
1.27458 0.125195 0
1.29018 0.0973841 0
1.05454 0.098175 0
1.07422 0.0861938 0
1.09136 0.0684251 0
0.827163 0.0696258 0
0.849262 0.0637213 0
0.869709 0.0545025 0
1.29018 0.0973841 0
1.29411 0.0640082 0
1.28921 0.028095 0
1.09136 0.0684251 0
1.09624 0.0463118 0
1.09514 0.0217816 0
0.869709 0.0545025 0
0.879001 0.0415744 0
0.883219 0.0268726 0
0.827163 0.0696258 0
0.849262 0.0637213 0
0.869709 0.0545025 0
0.45205 0.0231748 0
0.481475 0.0215582 0
0.509935 0.0186587 0
0 0 0
0 0 0
0 0 0
0.869709 0.0545025 0
0.879001 0.0415744 0
0.883219 0.0268726 0
0.509935 0.0186587 0
0.530852 0.0149206 0
0.546497 0.0102158 0
0 0 0
0 0 0
0 0 0
1.28921 0.028095 0
1.27122 -0.0080014 0
1.24371 -0.0422918 0
1.09514 0.0217816 0
1.08135 -0.00319435 0
1.05996 -0.0272964 0
0.883219 0.0268726 0
0.875556 0.0110507 0
0.86135 -0.0045354 0
1.24371 -0.0422918 0
1.2041 -0.0716629 0
1.15575 -0.0966449 0
1.05996 -0.0272964 0
1.02943 -0.048749 0
0.991597 -0.0673616 0
0.86135 -0.0045354 0
0.837306 -0.0184726 0
0.806125 -0.0302612 0
0.883219 0.0268726 0
0.875556 0.0110507 0
0.86135 -0.0045354 0
0.546497 0.0102158 0
0.552933 0.00540277 0
0.550928 5.98803e-05 0
0 0 0
0 0 0
0 0 0
0.86135 -0.0045354 0
0.837306 -0.0184726 0
0.806125 -0.0302612 0
0.550928 5.98803e-05 0
0.54139 -0.00474013 0
0.522061 -0.00922955 0
0 0 0
0 0 0
0 0 0
1.12652 -0.159019 0
1.1146 -0.0231472 0
1.15073 0.0869013 0
1.16113 -0.168311 0
1.14536 -0.0652667 0
1.16522 0.0316938 0
1.16521 -0.126156 0
1.13199 -0.0488502 0
1.10894 0.0275456 0
1.15073 0.0869013 0
1.22555 0.227556 0
1.32836 0.344484 0
1.16522 0.0316938 0
1.19881 0.139169 0
1.27017 0.242444 0
1.10894 0.0275456 0
1.13009 0.107325 0
1.15543 0.176662 0
1.16521 -0.126156 0
1.13199 -0.0488502 0
1.10894 0.0275456 0
1.0852 -0.0794731 0
1.07584 -0.0310149 0
1.06572 0.0218304 0
1.01344 -0.0555613 0
1.01116 -0.0224821 0
1.0067 0.0132212 0
1.10894 0.0275456 0
1.13009 0.107325 0
1.15543 0.176662 0
1.06572 0.0218304 0
1.09911 0.0780212 0
1.13456 0.126369 0
1.0067 0.0132212 0
1.02926 0.0543728 0
1.05399 0.0914333 0
1.32836 0.344484 0
1.45065 0.42446 0
1.58323 0.458692 0
1.27017 0.242444 0
1.38952 0.331505 0
1.52342 0.373754 0
1.15543 0.176662 0
1.2173 0.234753 0
1.29593 0.272802 0
1.58323 0.458692 0
1.68069 0.45148 0
1.79973 0.410748 0
1.52342 0.373754 0
1.65191 0.374654 0
1.76768 0.333218 0
1.29593 0.272802 0
1.39606 0.290159 0
1.50163 0.280289 0
1.15543 0.176662 0
1.2173 0.234753 0
1.29593 0.272802 0
1.13456 0.126369 0
1.19601 0.164483 0
1.25347 0.185114 0
1.05399 0.0914333 0
1.09694 0.124053 0
1.14519 0.145819 0
1.29593 0.272802 0
1.39606 0.290159 0
1.50163 0.280289 0
1.25347 0.185114 0
1.32052 0.189192 0
1.38306 0.175441 0
1.14519 0.145819 0
1.19944 0.154343 0
1.25079 0.146732 0
1.01344 -0.0555613 0
1.01116 -0.0224821 0
1.0067 0.0132212 0
0.868647 -0.0303566 0
0.861414 -0.00997498 0
0.860144 0.0116298 0
0.613389 -0.0156667 0
0.613396 -0.00581554 0
0.62242 0.00547256 0
1.0067 0.0132212 0
1.02926 0.0543728 0
1.05399 0.0914333 0
0.860144 0.0116298 0
0.872892 0.0374484 0
0.89606 0.0602174 0
0.62242 0.00547256 0
0.637969 0.020129 0
0.666687 0.0347884 0
0.613389 -0.0156667 0
0.613396 -0.00581554 0
0.62242 0.00547256 0
0.270609 -0.00298296 0
0.260119 0.00121255 0
0.27342 0.00547055 0
0 0 0
0 0 0
0 0 0
0.62242 0.00547256 0
0.637969 0.020129 0
0.666687 0.0347884 0
0.27342 0.00547055 0
0.282522 0.00960037 0
0.307677 0.0139969 0
0 0 0
0 0 0
0 0 0
1.05399 0.0914333 0
1.09694 0.124053 0
1.14519 0.145819 0
0.89606 0.0602174 0
0.928534 0.0799716 0
0.968522 0.0935883 0
0.666687 0.0347884 0
0.699302 0.0491508 0
0.742195 0.0610088 0
1.14519 0.145819 0
1.19944 0.154343 0
1.25079 0.146732 0
0.968522 0.0935883 0
1.01018 0.10004 0
1.05454 0.098175 0
0.742195 0.0610088 0
0.783232 0.0682435 0
0.827163 0.0696258 0
0.666687 0.0347884 0
0.699302 0.0491508 0
0.742195 0.0610088 0
0.307677 0.0139969 0
0.333826 0.0175362 0
0.371138 0.0206277 0
0 0 0
0 0 0
0 0 0
0.742195 0.0610088 0
0.783232 0.0682435 0
0.827163 0.0696258 0
0.371138 0.0206277 0
0.408862 0.0222899 0
0.45205 0.0231748 0
0 0 0
0 0 0
0 0 0
0.63634 -0.522029 0
0.500846 -0.091969 0
0.243795 0.410195 0
0.374016 -0.321547 0
0.203574 0.11945 0
-0.0461343 0.61584 0
0.201171 -0.25069 0
0.0372392 0.199729 0
-0.15838 0.765998 0
0.243795 0.410195 0
0.0394901 0.79497 0
-0.252851 1.0465 0
-0.0461343 0.61584 0
-0.145953 1.03528 0
-0.313884 1.28537 0
-0.15838 0.765998 0
-0.0788814 1.12446 0
-0.0789836 1.29762 0
0.201171 -0.25069 0
0.0372392 0.199729 0
-0.15838 0.765998 0
0.118962 -0.0449464 0
0.0248416 0.400475 0
-0.0440345 0.815413 0
0.145429 0.0179242 0
0.12523 0.308606 0
0.231688 0.55034 0
-0.15838 0.765998 0
-0.0788814 1.12446 0
-0.0789836 1.29762 0
-0.0440345 0.815413 0
0.175989 1.01169 0
0.296336 1.17484 0
0.231688 0.55034 0
0.543588 0.729771 0
0.703372 0.931669 0
-0.252851 1.0465 0
-0.51425 1.41163 0
-0.492671 1.39618 0
-0.313884 1.28537 0
-0.327434 1.47734 0
-0.197573 1.29922 0
-0.0789836 1.29762 0
0.0520245 1.38647 0
0.175685 1.26218 0
-0.492671 1.39618 0
-0.56444 1.10016 0
-0.626266 0.843114 0
-0.197573 1.29922 0
-0.322329 1.07849 0
-0.372391 0.770459 0
0.175685 1.26218 0
0.0757479 1.11092 0
0.0584726 0.705223 0
-0.0789836 1.29762 0
0.0520245 1.38647 0
0.175685 1.26218 0
0.296336 1.17484 0
0.497446 1.28825 0
0.615598 1.22033 0
0.703372 0.931669 0
0.94673 1.12764 0
1.07677 1.15641 0
0.175685 1.26218 0
0.0757479 1.11092 0
0.0584726 0.705223 0
0.615598 1.22033 0
0.576131 1.0862 0
0.556524 0.665072 0
1.07677 1.15641 0
1.08697 1.10224 0
1.08136 0.792605 0
0.145429 0.0179242 0
0.12523 0.308606 0
0.231688 0.55034 0
0.255672 0.0284532 0
0.380255 0.26762 0
0.575886 0.427428 0
0.496896 0.0369267 0
0.694917 0.13316 0
0.773443 0.206189 0
0.231688 0.55034 0
0.543588 0.729771 0
0.703372 0.931669 0
0.575886 0.427428 0
0.793227 0.568771 0
0.942664 0.781463 0
0.773443 0.206189 0
0.93467 0.401082 0
1.05122 0.58896 0
0.496896 0.0369267 0
0.694917 0.13316 0
0.773443 0.206189 0
0.864219 -0.145339 0
0.975347 -0.0163727 0
1.03547 0.12852 0
1.12652 -0.159019 0
1.1146 -0.0231472 0
1.15073 0.0869013 0
0.773443 0.206189 0
0.93467 0.401082 0
1.05122 0.58896 0
1.03547 0.12852 0
1.11056 0.296312 0
1.18525 0.447726 0
1.15073 0.0869013 0
1.22555 0.227556 0
1.32836 0.344484 0
0.703372 0.931669 0
0.94673 1.12764 0
1.07677 1.15641 0
0.942664 0.781463 0
1.23889 0.976191 0
1.46169 1.02909 0
1.05122 0.58896 0
1.32777 0.740542 0
1.62536 0.825104 0
1.07677 1.15641 0
1.08697 1.10224 0
1.08136 0.792605 0
1.46169 1.02909 0
1.54045 0.979806 0
1.54607 0.771795 0
1.62536 0.825104 0
1.87616 0.810529 0
2.0134 0.674425 0
1.05122 0.58896 0
1.32777 0.740542 0
1.62536 0.825104 0
1.18525 0.447726 0
1.34883 0.573927 0
1.53282 0.636488 0
1.32836 0.344484 0
1.45065 0.42446 0
1.58323 0.458692 0
1.62536 0.825104 0
1.87616 0.810529 0
2.0134 0.674425 0
1.53282 0.636488 0
1.75382 0.659184 0
1.98326 0.610688 0
1.58323 0.458692 0
1.68069 0.45148 0
1.79973 0.410748 0
1.89858 -0.601969 0
2.08575 -0.565135 0
2.22349 -0.467984 0
2.03735 -0.782852 0
2.10647 -0.703172 0
2.14733 -0.569452 0
1.99729 -0.870659 0
2.04981 -0.776006 0
2.1033 -0.615036 0
2.22349 -0.467984 0
2.27827 -0.333638 0
2.30133 -0.182479 0
2.14733 -0.569452 0
2.11796 -0.40203 0
2.05818 -0.22112 0
2.1033 -0.615036 0
1.99652 -0.395011 0
1.86867 -0.173022 0
1.99729 -0.870659 0
2.04981 -0.776006 0
2.1033 -0.615036 0
2.03813 -0.997207 0
2.02289 -0.765603 0
1.91596 -0.491456 0
1.98168 -0.982684 0
1.68963 -0.599094 0
1.57861 -0.351385 0
2.1033 -0.615036 0
1.99652 -0.395011 0
1.86867 -0.173022 0
1.91596 -0.491456 0
1.72392 -0.19159 0
1.52267 0.0654957 0
1.57861 -0.351385 0
1.33832 -0.0100522 0
1.22724 0.186133 0
2.30133 -0.182479 0
2.24666 -0.0457429 0
2.19276 0.0672698 0
2.05818 -0.22112 0
1.91922 -0.0612204 0
1.77097 0.0658425 0
1.86867 -0.173022 0
1.6154 0.00645566 0
1.36578 0.125936 0
2.19276 0.0672698 0
2.129 0.144706 0
2.08242 0.196049 0
1.77097 0.0658425 0
1.65061 0.145015 0
1.56407 0.183586 0
1.36578 0.125936 0
1.12115 0.161669 0
0.88598 0.147775 0
1.86867 -0.173022 0
1.6154 0.00645566 0
1.36578 0.125936 0
1.52267 0.0654957 0
1.27716 0.26797 0
1.0065 0.40159 0
1.22724 0.186133 0
0.954173 0.434117 0
0.706679 0.558963 0
1.36578 0.125936 0
1.12115 0.161669 0
0.88598 0.147775 0
1.0065 0.40159 0
0.790507 0.446765 0
0.536999 0.409253 0
0.706679 0.558963 0
0.458636 0.62187 0
0.24361 0.562044 0
1.98168 -0.982684 0
1.68963 -0.599094 0
1.57861 -0.351385 0
1.56468 -0.911791 0
1.39498 -0.566638 0
1.31424 -0.262213 0
1.29493 -0.861485 0
1.18541 -0.418746 0
0.948803 -0.0385448 0
1.57861 -0.351385 0
1.33832 -0.0100522 0
1.22724 0.186133 0
1.31424 -0.262213 0
1.06287 0.123123 0
0.914603 0.359619 0
0.948803 -0.0385448 0
0.688476 0.365817 0
0.432109 0.687655 0
1.29493 -0.861485 0
1.18541 -0.418746 0
0.948803 -0.0385448 0
0.989181 -0.653787 0
0.811487 -0.226059 0
0.568463 0.155018 0
0.63634 -0.522029 0
0.500846 -0.091969 0
0.243795 0.410195 0
0.948803 -0.0385448 0
0.688476 0.365817 0
0.432109 0.687655 0
0.568463 0.155018 0
0.346222 0.526548 0
0.0227753 0.829811 0
0.243795 0.410195 0
0.0394901 0.79497 0
-0.252851 1.0465 0
1.22724 0.186133 0
0.954173 0.434117 0
0.706679 0.558963 0
0.914603 0.359619 0
0.560702 0.639406 0
0.265802 0.802399 0
0.432109 0.687655 0
0.152313 0.914922 0
-0.198458 1.04224 0
0.706679 0.558963 0
0.458636 0.62187 0
0.24361 0.562044 0
0.265802 0.802399 0
0.018522 0.825021 0
-0.107566 0.663116 0
-0.198458 1.04224 0
-0.414792 0.954713 0
-0.473465 0.724724 0
0.432109 0.687655 0
0.152313 0.914922 0
-0.198458 1.04224 0
0.0227753 0.829811 0
-0.270884 1.18548 0
-0.46293 1.2925 0
-0.252851 1.0465 0
-0.51425 1.41163 0
-0.492671 1.39618 0
-0.198458 1.04224 0
-0.414792 0.954713 0
-0.473465 0.724724 0
-0.46293 1.2925 0
-0.604208 1.04765 0
-0.659836 0.755042 0
-0.492671 1.39618 0
-0.56444 1.10016 0
-0.626266 0.843114 0
0 0 0
0 0 0
0 0 0
0.349035 -0.0220794 0
0.404373 -0.0220983 0
0.446158 -0.0226212 0
0.651652 -0.0916846 0
0.735454 -0.0973639 0
0.812128 -0.100613 0
0 0 0
0 0 0
0 0 0
0.446158 -0.0226212 0
0.497854 -0.0238153 0
0.543294 -0.0241826 0
0.812128 -0.100613 0
0.888703 -0.0989398 0
0.952197 -0.0921992 0
0.651652 -0.0916846 0
0.735454 -0.0973639 0
0.812128 -0.100613 0
0.957521 -0.168634 0
1.04294 -0.167119 0
1.12844 -0.161855 0