# vtk DataFile Version 3.0
#This file was generated by the deal.II library on 2025/1/8 at 8:27:26
ASCII
DATASET UNSTRUCTURED_GRID

POINTS 8640 double
1.1 1.1 0
0.9625 1.09063 0
0.825 1.08125 0
1.0875 0.9625 0
0.951563 0.954297 0
0.815625 0.946094 0
1.075 0.825 0
0.940625 0.817969 0
0.80625 0.810937 0
0.825 1.08125 0
0.6875 1.07187 0
0.55 1.0625 0
0.815625 0.946094 0
0.679688 0.937891 0
0.54375 0.929688 0
0.80625 0.810937 0
0.671875 0.803906 0
0.5375 0.796875 0
1.075 0.825 0
0.940625 0.817969 0
0.80625 0.810937 0
1.0625 0.6875 0
0.929688 0.681641 0
0.796875 0.675781 0
1.05 0.55 0
0.91875 0.545313 0
0.7875 0.540625 0
0.80625 0.810937 0
0.671875 0.803906 0
0.5375 0.796875 0
0.796875 0.675781 0
0.664062 0.669922 0
0.53125 0.664062 0
0.7875 0.540625 0
0.65625 0.535937 0
0.525 0.53125 0
0.55 1.0625 0
0.4125 1.05313 0
0.275 1.04375 0
0.54375 0.929688 0
0.407813 0.921484 0
0.271875 0.913281 0
0.5375 0.796875 0
0.403125 0.789844 0
0.26875 0.782813 0
0.275 1.04375 0
0.1375 1.03437 0
0 1.025 0
0.271875 0.913281 0
0.135938 0.905078 0
0 0.896875 0
0.26875 0.782813 0
0.134375 0.775781 0
0 0.76875 0
0.5375 0.796875 0
0.403125 0.789844 0
0.26875 0.782813 0
0.53125 0.664062 0
0.398438 0.658203 0
0.265625 0.652344 0
0.525 0.53125 0
0.39375 0.526563 0
0.2625 0.521875 0
0.26875 0.782813 0
0.134375 0.775781 0
0 0.76875 0
0.265625 0.652344 0
0.132812 0.646484 0
0 0.640625 0
0.2625 0.521875 0
0.13125 0.517187 0
0 0.5125 0
1.05 0.55 0
0.91875 0.545313 0
0.7875 0.540625 0
1.0375 0.4125 0
0.907812 0.408984 0
0.778125 0.405469 0
1.025 0.275 0
0.896875 0.272656 0
0.76875 0.270313 0
0.7875 0.540625 0
0.65625 0.535937 0
0.525 0.53125 0
0.778125 0.405469 0
0.648438 0.401953 0
0.51875 0.398438 0
0.76875 0.270313 0
0.640625 0.267969 0
0.5125 0.265625 0
1.025 0.275 0
0.896875 0.272656 0
0.76875 0.270313 0
1.0125 0.1375 0
0.885937 0.136328 0
0.759375 0.135156 0
1 0 0
0.875 0 0
0.75 0 0
0.76875 0.270313 0
0.640625 0.267969 0
0.5125 0.265625 0
0.759375 0.135156 0
0.632812 0.133984 0
0.50625 0.132812 0
0.75 0 0
0.625 0 0
0.5 0 0
0.525 0.53125 0
0.39375 0.526563 0
0.2625 0.521875 0
0.51875 0.398438 0
0.389062 0.394922 0
0.259375 0.391406 0
0.5125 0.265625 0
0.384375 0.263281 0
0.25625 0.260937 0
0.2625 0.521875 0
0.13125 0.517187 0
0 0.5125 0
0.259375 0.391406 0
0.129688 0.387891 0
0 0.384375 0
0.25625 0.260937 0
0.128125 0.258594 0
0 0.25625 0
0.5125 0.265625 0
0.384375 0.263281 0
0.25625 0.260937 0
0.50625 0.132812 0
0.379687 0.131641 0
0.253125 0.130469 0
0.5 0 0
0.375 0 0
0.25 0 0
0.25625 0.260937 0
0.128125 0.258594 0
0 0.25625 0
0.253125 0.130469 0
0.126562 0.129297 0
0 0.128125 0
0.25 0 0
0.125 0 0
0 0 0
2 1 0
1.8875 1.0125 0
1.775 1.025 0
2 0.875 0
1.88594 0.885938 0
1.77188 0.896875 0
2 0.75 0
1.88437 0.759375 0
1.76875 0.76875 0
1.775 1.025 0
1.6625 1.0375 0
1.55 1.05 0
1.77188 0.896875 0
1.65781 0.907813 0
1.54375 0.91875 0
1.76875 0.76875 0
1.65313 0.778125 0
1.5375 0.7875 0
2 0.75 0
1.88437 0.759375 0
1.76875 0.76875 0
2 0.625 0
1.88281 0.632812 0
1.76562 0.640625 0
2 0.5 0
1.88125 0.50625 0
1.7625 0.5125 0
1.76875 0.76875 0
1.65313 0.778125 0
1.5375 0.7875 0
1.76562 0.640625 0
1.64844 0.648438 0
1.53125 0.65625 0
1.7625 0.5125 0
1.64375 0.51875 0
1.525 0.525 0
1.55 1.05 0
1.4375 1.0625 0
1.325 1.075 0
1.54375 0.91875 0
1.42969 0.929688 0
1.31563 0.940625 0
1.5375 0.7875 0
1.42188 0.796875 0
1.30625 0.80625 0
1.325 1.075 0
1.2125 1.0875 0
1.1 1.1 0
1.31563 0.940625 0
1.20156 0.951563 0
1.0875 0.9625 0
1.30625 0.80625 0
1.19063 0.815625 0
1.075 0.825 0
1.5375 0.7875 0
1.42188 0.796875 0
1.30625 0.80625 0
1.53125 0.65625 0
1.41406 0.664062 0
1.29688 0.671875 0
1.525 0.525 0
1.40625 0.53125 0
1.2875 0.5375 0
1.30625 0.80625 0
1.19063 0.815625 0
1.075 0.825 0
1.29688 0.671875 0
1.17969 0.679688 0
1.0625 0.6875 0
1.2875 0.5375 0
1.16875 0.54375 0
1.05 0.55 0
2 0.5 0
1.88125 0.50625 0
1.7625 0.5125 0
2 0.375 0
1.87969 0.379687 0
1.75938 0.384375 0
2 0.25 0
1.87813 0.253125 0
1.75625 0.25625 0
1.7625 0.5125 0
1.64375 0.51875 0
1.525 0.525 0
1.75938 0.384375 0
1.63906 0.389063 0
1.51875 0.39375 0
1.75625 0.25625 0
1.63438 0.259375 0
1.5125 0.2625 0
2 0.25 0
1.87813 0.253125 0
1.75625 0.25625 0
2 0.125 0
1.87656 0.126562 0
1.75313 0.128125 0
2 0 0
1.875 0 0
1.75 0 0
1.75625 0.25625 0
1.63438 0.259375 0
1.5125 0.2625 0
1.75313 0.128125 0
1.62969 0.129688 0
1.50625 0.13125 0
1.75 0 0
1.625 0 0
1.5 0 0
1.525 0.525 0
1.40625 0.53125 0
1.2875 0.5375 0
1.51875 0.39375 0
1.39844 0.398438 0
1.27813 0.403125 0
1.5125 0.2625 0
1.39062 0.265625 0
1.26875 0.26875 0
1.2875 0.5375 0
1.16875 0.54375 0
1.05 0.55 0
1.27813 0.403125 0
1.15781 0.407813 0
1.0375 0.4125 0
1.26875 0.26875 0
1.14688 0.271875 0
1.025 0.275 0
1.5125 0.2625 0
1.39062 0.265625 0
1.26875 0.26875 0
1.50625 0.13125 0
1.38281 0.132812 0
1.25937 0.134375 0
1.5 0 0
1.375 0 0
1.25 0 0
1.26875 0.26875 0
1.14688 0.271875 0
1.025 0.275 0
1.25937 0.134375 0
1.13594 0.135938 0
1.0125 0.1375 0
1.25 0 0
1.125 0 0
1 0 0
1 2 0
0.875 2.00625 0
0.75 2.0125 0
1.0125 1.8875 0
0.885938 1.8918 0
0.759375 1.89609 0
1.025 1.775 0
0.896875 1.77734 0
0.76875 1.77969 0
0.75 2.0125 0
0.625 2.01875 0
0.5 2.025 0
0.759375 1.89609 0
0.632812 1.90039 0
0.50625 1.90469 0
0.76875 1.77969 0
0.640625 1.78203 0
0.5125 1.78437 0
1.025 1.775 0
0.896875 1.77734 0
0.76875 1.77969 0
1.0375 1.6625 0
0.907813 1.66289 0
0.778125 1.66328 0
1.05 1.55 0
0.91875 1.54844 0
0.7875 1.54688 0
0.76875 1.77969 0
0.640625 1.78203 0
0.5125 1.78437 0
0.778125 1.66328 0
0.648438 1.66367 0
0.51875 1.66406 0
0.7875 1.54688 0
0.65625 1.54531 0
0.525 1.54375 0
0.5 2.025 0
0.375 2.03125 0
0.25 2.0375 0
0.50625 1.90469 0
0.379687 1.90898 0
0.253125 1.91328 0
0.5125 1.78437 0
0.384375 1.78672 0
0.25625 1.78906 0
0.25 2.0375 0
0.125 2.04375 0
0 2.05 0
0.253125 1.91328 0
0.126562 1.91758 0
0 1.92187 0
0.25625 1.78906 0
0.128125 1.79141 0
0 1.79375 0
0.5125 1.78437 0
0.384375 1.78672 0
0.25625 1.78906 0
0.51875 1.66406 0
0.389062 1.66445 0
0.259375 1.66484 0
0.525 1.54375 0
0.39375 1.54219 0
0.2625 1.54062 0
0.25625 1.78906 0
0.128125 1.79141 0
0 1.79375 0
0.259375 1.66484 0
0.129688 1.66523 0
0 1.66562 0
0.2625 1.54062 0
0.13125 1.53906 0
0 1.5375 0
1.05 1.55 0
0.91875 1.54844 0
0.7875 1.54688 0
1.0625 1.4375 0
0.929688 1.43398 0
0.796875 1.43047 0
1.075 1.325 0
0.940625 1.31953 0
0.80625 1.31406 0
0.7875 1.54688 0
0.65625 1.54531 0
0.525 1.54375 0
0.796875 1.43047 0
0.664062 1.42695 0
0.53125 1.42344 0
0.80625 1.31406 0
0.671875 1.30859 0
0.5375 1.30312 0
1.075 1.325 0
0.940625 1.31953 0
0.80625 1.31406 0
1.0875 1.2125 0
0.951563 1.20508 0
0.815625 1.19766 0
1.1 1.1 0
0.9625 1.09063 0
0.825 1.08125 0
0.80625 1.31406 0
0.671875 1.30859 0
0.5375 1.30312 0
0.815625 1.19766 0
0.679688 1.19023 0
0.54375 1.18281 0
0.825 1.08125 0
0.6875 1.07187 0
0.55 1.0625 0
0.525 1.54375 0
0.39375 1.54219 0
0.2625 1.54062 0
0.53125 1.42344 0
0.398438 1.41992 0
0.265625 1.41641 0
0.5375 1.30312 0
0.403125 1.29766 0
0.26875 1.29219 0
0.2625 1.54062 0
0.13125 1.53906 0
0 1.5375 0
0.265625 1.41641 0
0.132812 1.41289 0
0 1.40937 0
0.26875 1.29219 0
0.134375 1.28672 0
0 1.28125 0
0.5375 1.30312 0
0.403125 1.29766 0
0.26875 1.29219 0
0.54375 1.18281 0
0.407813 1.17539 0
0.271875 1.16797 0
0.55 1.0625 0
0.4125 1.05313 0
0.275 1.04375 0
0.26875 1.29219 0
0.134375 1.28672 0
0 1.28125 0
0.271875 1.16797 0
0.135938 1.16055 0
0 1.15312 0
0.275 1.04375 0
0.1375 1.03437 0
0 1.025 0
2.9 1.1 0
2.7875 1.0875 0
2.675 1.075 0
2.9125 0.9625 0
2.79844 0.951563 0
2.68438 0.940625 0
2.925 0.825 0
2.80938 0.815625 0
2.69375 0.80625 0
2.675 1.075 0
2.5625 1.0625 0
2.45 1.05 0
2.68438 0.940625 0
2.57031 0.929688 0
2.45625 0.91875 0
2.69375 0.80625 0
2.57812 0.796875 0
2.4625 0.7875 0
2.925 0.825 0
2.80938 0.815625 0
2.69375 0.80625 0
2.9375 0.6875 0
2.82031 0.679688 0
2.70312 0.671875 0
2.95 0.55 0
2.83125 0.54375 0
2.7125 0.5375 0
2.69375 0.80625 0
2.57812 0.796875 0
2.4625 0.7875 0
2.70312 0.671875 0
2.58594 0.664062 0
2.46875 0.65625 0
2.7125 0.5375 0
2.59375 0.53125 0
2.475 0.525 0
2.45 1.05 0
2.3375 1.0375 0
2.225 1.025 0
2.45625 0.91875 0
2.34219 0.907813 0
2.22813 0.896875 0
2.4625 0.7875 0
2.34688 0.778125 0
2.23125 0.76875 0
2.225 1.025 0
2.1125 1.0125 0
2 1 0
2.22813 0.896875 0
2.11406 0.885938 0
2 0.875 0
2.23125 0.76875 0
2.11563 0.759375 0
2 0.75 0
2.4625 0.7875 0
2.34688 0.778125 0
2.23125 0.76875 0
2.46875 0.65625 0
2.35156 0.648438 0
2.23438 0.640625 0
2.475 0.525 0
2.35625 0.51875 0
2.2375 0.5125 0
2.23125 0.76875 0
2.11563 0.759375 0
2 0.75 0
2.23438 0.640625 0
2.11719 0.632812 0
2 0.625 0
2.2375 0.5125 0
2.11875 0.50625 0
2 0.5 0
2.95 0.55 0
2.83125 0.54375 0
2.7125 0.5375 0
2.9625 0.4125 0
2.84219 0.407813 0
2.72188 0.403125 0
2.975 0.275 0
2.85313 0.271875 0
2.73125 0.26875 0
2.7125 0.5375 0
2.59375 0.53125 0
2.475 0.525 0
2.72188 0.403125 0
2.60156 0.398438 0
2.48125 0.39375 0
2.73125 0.26875 0
2.60938 0.265625 0
2.4875 0.2625 0
2.975 0.275 0
2.85313 0.271875 0
2.73125 0.26875 0
2.9875 0.1375 0
2.86406 0.135938 0
2.74063 0.134375 0
3 0 0
2.875 0 0
2.75 0 0
2.73125 0.26875 0
2.60938 0.265625 0
2.4875 0.2625 0
2.74063 0.134375 0
2.61719 0.132812 0
2.49375 0.13125 0
2.75 0 0
2.625 0 0
2.5 0 0
2.475 0.525 0
2.35625 0.51875 0
2.2375 0.5125 0
2.48125 0.39375 0
2.36094 0.389063 0
2.24062 0.384375 0
2.4875 0.2625 0
2.36562 0.259375 0
2.24375 0.25625 0
2.2375 0.5125 0
2.11875 0.50625 0
2 0.5 0
2.24062 0.384375 0
2.12031 0.379687 0
2 0.375 0
2.24375 0.25625 0
2.12188 0.253125 0
2 0.25 0
2.4875 0.2625 0
2.36562 0.259375 0
2.24375 0.25625 0
2.49375 0.13125 0
2.37031 0.129688 0
2.24688 0.128125 0
2.5 0 0
2.375 0 0
2.25 0 0
2.24375 0.25625 0
2.12188 0.253125 0
2 0.25 0
2.24688 0.128125 0
2.12344 0.126562 0
2 0.125 0
2.25 0 0
2.125 0 0
2 0 0
4 1 0
3.8625 1.0125 0
3.725 1.025 0
4 0.875 0
3.86406 0.885938 0
3.72813 0.896875 0
4 0.75 0
3.86563 0.759375 0
3.73125 0.76875 0
3.725 1.025 0
3.5875 1.0375 0
3.45 1.05 0
3.72813 0.896875 0
3.59219 0.907813 0
3.45625 0.91875 0
3.73125 0.76875 0
3.59688 0.778125 0
3.4625 0.7875 0
4 0.75 0
3.86563 0.759375 0
3.73125 0.76875 0
4 0.625 0
3.86719 0.632812 0
[...]
POINT_DATA 8640
VECTORS v double
1.24601 -0.292507 0
1.22285 -0.24623 0
1.19637 -0.198457 0
1.17346 -0.259477 0
1.14153 -0.219645 0
1.11296 -0.183039 0
1.08623 -0.225614 0
1.05101 -0.192667 0
1.01775 -0.161152 0
1.19637 -0.198457 0
1.18219 -0.162314 0
1.1652 -0.124041 0
1.11296 -0.183039 0
1.09101 -0.148551 0
1.07236 -0.11714 0
1.01775 -0.161152 0
0.991269 -0.131427 0
0.968299 -0.103888 0
1.08623 -0.225614 0
1.05101 -0.192667 0
1.01775 -0.161152 0
0.975246 -0.177585 0
0.935886 -0.153403 0
0.90038 -0.130437 0
0.841324 -0.13842 0
0.803053 -0.121029 0
0.76787 -0.103835 0
1.01775 -0.161152 0
0.991269 -0.131427 0
0.968299 -0.103888 0
0.90038 -0.130437 0
0.871028 -0.107762 0
0.846189 -0.0860263 0
0.76787 -0.103835 0
0.738178 -0.0863637 0
0.712845 -0.0693661 0
1.1652 -0.124041 0
1.15461 -0.0935464 0
1.14179 -0.060254 0
1.07236 -0.11714 0
1.05675 -0.0874362 0
1.04412 -0.0580387 0
0.968299 -0.103888 0
0.949544 -0.0770501 0
0.935079 -0.0511558 0
1.14179 -0.060254 0
1.13398 -0.0312642 0
1.125 0 0
1.04412 -0.0580387 0
1.03332 -0.0289557 0
1.02539 0 0
0.935079 -0.0511558 0
0.922259 -0.0252706 0
0.914062 0 0
0.968299 -0.103888 0
0.949544 -0.0770501 0
0.935079 -0.0511558 0
0.846189 -0.0860263 0
0.826118 -0.0642116 0
0.811142 -0.0431242 0
0.712845 -0.0693661 0
0.692224 -0.0522172 0
0.676737 -0.0354032 0
0.935079 -0.0511558 0
0.922259 -0.0252706 0
0.914062 0 0
0.811142 -0.0431242 0
0.798565 -0.0216242 0
0.791016 0 0
0.676737 -0.0354032 0
0.663785 -0.0179711 0
0.65625 0 0
0.841324 -0.13842 0
0.803053 -0.121029 0
0.76787 -0.103835 0
0.693905 -0.0943255 0
0.655569 -0.0825981 0
0.62008 -0.0709409 0
0.522852 -0.0558745 0
0.487203 -0.0494292 0
0.454324 -0.0430605 0
0.76787 -0.103835 0
0.738178 -0.0863637 0
0.712845 -0.0693661 0
0.62008 -0.0709409 0
0.589999 -0.05922 0
0.564266 -0.0476861 0
0.454324 -0.0430605 0
0.426121 -0.0365312 0
0.402168 -0.0301081 0
0.522852 -0.0558745 0
0.487203 -0.0494292 0
0.454324 -0.0430605 0
0.315975 -0.017369 0
0.287249 -0.0150928 0
0.261832 -0.0130244 0
0 0 0
0 0 0
0 0 0
0.454324 -0.0430605 0
0.426121 -0.0365312 0
0.402168 -0.0301081 0
0.261832 -0.0130244 0
0.23907 -0.0108349 0
0.22063 -0.00883449 0
0 0 0
0 0 0
0 0 0
0.712845 -0.0693661 0
0.692224 -0.0522172 0
0.676737 -0.0354032 0
0.564266 -0.0476861 0
0.543426 -0.0358029 0
0.528065 -0.0240806 0
0.402168 -0.0301081 0
0.382483 -0.0233338 0
0.368235 -0.0166067 0
0.676737 -0.0354032 0
0.663785 -0.0179711 0
0.65625 0 0
0.528065 -0.0240806 0
0.516021 -0.0119395 0
0.509766 0 0
0.368235 -0.0166067 0
0.357075 -0.00911044 0
0.351562 0 0
0.402168 -0.0301081 0
0.382483 -0.0233338 0
0.368235 -0.0166067 0
0.22063 -0.00883449 0
0.204692 -0.00653771 0
0.19401 -0.00442007 0
0 0 0
0 0 0
0 0 0
0.368235 -0.0166067 0
0.357075 -0.00911044 0
0.351562 0 0
0.19401 -0.00442007 0
0.185181 -0.00205106 0
0.181641 0 0
0 0 0
0 0 0
0 0 0
1.72672 -0.388338 0
1.65465 -0.433821 0
1.57208 -0.451965 0
1.58372 -0.304585 0
1.52254 -0.339268 0
1.4517 -0.359797 0
1.44551 -0.238674 0
1.39717 -0.272595 0
1.34546 -0.295607 0
1.57208 -0.451965 0
1.49531 -0.449331 0
1.41822 -0.430721 0
1.4517 -0.359797 0
1.39007 -0.36574 0
1.32395 -0.359651 0
1.34546 -0.295607 0
1.29362 -0.30426 0
1.23986 -0.30243 0
1.44551 -0.238674 0
1.39717 -0.272595 0
1.34546 -0.295607 0
1.32434 -0.18226 0
1.28133 -0.203702 0
1.23208 -0.218878 0
1.1596 -0.122891 0
1.11924 -0.141416 0
1.0743 -0.155529 0
1.34546 -0.295607 0
1.29362 -0.30426 0
1.23986 -0.30243 0
1.23208 -0.218878 0
1.18268 -0.22527 0
1.13037 -0.225162 0
1.0743 -0.155529 0
1.03101 -0.163942 0
0.985137 -0.167178 0
1.41822 -0.430721 0
1.36064 -0.403838 0
1.31013 -0.367225 0
1.32395 -0.359651 0
1.27817 -0.342241 0
1.23134 -0.318379 0
1.23986 -0.30243 0
1.1955 -0.29015 0
1.15206 -0.272041 0
1.31013 -0.367225 0
1.27599 -0.332117 0
1.24601 -0.292507 0
1.23134 -0.318379 0
1.2015 -0.28959 0
1.17346 -0.259477 0
1.15206 -0.272041 0
1.11831 -0.249597 0
1.08623 -0.225614 0
1.23986 -0.30243 0
1.1955 -0.29015 0
1.15206 -0.272041 0
1.13037 -0.225162 0
1.08647 -0.218545 0
1.04303 -0.208037 0
0.985137 -0.167178 0
0.946063 -0.165189 0
0.906677 -0.159494 0
1.15206 -0.272041 0
1.11831 -0.249597 0
1.08623 -0.225614 0
1.04303 -0.208037 0
1.00792 -0.193978 0
0.975246 -0.177585 0
0.906677 -0.159494 0
0.873418 -0.150201 0
0.841324 -0.13842 0
1.1596 -0.122891 0
1.11924 -0.141416 0
1.0743 -0.155529 0
1.00067 -0.0862377 0
0.965802 -0.0989849 0
0.924521 -0.108519 0
0.819559 -0.0428294 0
0.786102 -0.0513742 0
0.746459 -0.0581273 0
1.0743 -0.155529 0
1.03101 -0.163942 0
0.985137 -0.167178 0
0.924521 -0.108519 0
0.884738 -0.113637 0
0.84051 -0.115044 0
0.746459 -0.0581273 0
0.707968 -0.0622658 0
0.665582 -0.0642131 0
0.819559 -0.0428294 0
0.786102 -0.0513742 0
0.746459 -0.0581273 0
0.53662 -0.0131777 0
0.51736 -0.0162376 0
0.489464 -0.0186764 0
0 0 0
0 0 0
0 0 0
0.746459 -0.0581273 0
0.707968 -0.0622658 0
0.665582 -0.0642131 0
0.489464 -0.0186764 0
0.462914 -0.02022 0
0.430367 -0.0207505 0
0 0 0
0 0 0
0 0 0
0.985137 -0.167178 0
0.946063 -0.165189 0
0.906677 -0.159494 0
0.84051 -0.115044 0
0.80199 -0.112947 0
0.761855 -0.108527 0
0.665582 -0.0642131 0
0.62804 -0.0641 0
0.589197 -0.0626251 0
0.906677 -0.159494 0
0.873418 -0.150201 0
0.841324 -0.13842 0
0.761855 -0.108527 0
0.727481 -0.102292 0
0.693905 -0.0943255 0
0.589197 -0.0626251 0
0.555642 -0.0599087 0
0.522852 -0.0558745 0
0.665582 -0.0642131 0
0.62804 -0.0641 0
0.589197 -0.0626251 0
0.430367 -0.0207505 0
0.401623 -0.0206938 0
0.370452 -0.0199303 0
0 0 0
0 0 0
0 0 0
0.589197 -0.0626251 0
0.555642 -0.0599087 0
0.522852 -0.0558745 0
0.370452 -0.0199303 0
0.342944 -0.0189856 0
0.315975 -0.017369 0
0 0 0
0 0 0
0 0 0
1.24557 -0.0361636 0
1.31858 -0.0320036 0
1.37612 -0.0282829 0
1.25995 -0.11462 0
1.32448 -0.0917086 0
1.37886 -0.0724679 0
1.25672 -0.174952 0
1.31504 -0.138617 0
1.36599 -0.109131 0
1.37612 -0.0282829 0
1.4181 -0.0251965 0
1.44918 -0.0215265 0
1.37886 -0.0724679 0
1.41668 -0.0590082 0
1.44694 -0.0466896 0
1.36599 -0.109131 0
1.40072 -0.0873223 0
1.42999 -0.0678267 0
1.25672 -0.174952 0
1.31504 -0.138617 0
1.36599 -0.109131 0
1.27466 -0.246711 0
1.32014 -0.193614 0
1.36017 -0.151002 0
1.29136 -0.276306 0
1.31917 -0.219183 0
1.3447 -0.171977 0
1.36599 -0.109131 0
1.40072 -0.0873223 0
1.42999 -0.0678267 0
1.36017 -0.151002 0
1.38743 -0.119796 0
1.41118 -0.0921792 0
1.3447 -0.171977 0
1.36328 -0.136836 0
1.38054 -0.104669 0
1.44918 -0.0215265 0
1.47237 -0.0173705 0
1.48687 -0.012177 0
1.44694 -0.0466896 0
1.46789 -0.0358899 0
1.48243 -0.02417 0
1.42999 -0.0678267 0
1.44983 -0.0507069 0
1.46506 -0.0334918 0
1.48687 -0.012177 0
1.49736 -0.0063854 0
1.5 0 0
1.48243 -0.02417 0
1.49112 -0.0122244 0
1.49414 0 0
1.46506 -0.0334918 0
1.47311 -0.0168542 0
1.47656 0 0
1.42999 -0.0678267 0
1.44983 -0.0507069 0
1.46506 -0.0334918 0
1.41118 -0.0921792 0
1.42667 -0.0687553 0
1.43928 -0.0455396 0
1.38054 -0.104669 0
1.39146 -0.0774345 0
1.40125 -0.0505636 0
1.46506 -0.0334918 0
1.47311 -0.0168542 0
1.47656 0 0
1.43928 -0.0455396 0
1.44465 -0.0232819 0
1.44727 0 0
1.40125 -0.0505636 0
1.40441 -0.0257079 0
1.40625 0 0
1.29136 -0.276306 0
1.31917 -0.219183 0
1.3447 -0.171977 0
1.29024 -0.30882 0
1.30778 -0.249261 0
1.31976 -0.197145 0
1.29327 -0.31367 0
1.29481 -0.255275 0
1.29124 -0.203112 0
1.3447 -0.171977 0
1.36328 -0.136836 0
1.38054 -0.104669 0
1.31976 -0.197145 0
1.33216 -0.158399 0
1.34117 -0.121015 0
1.29124 -0.203112 0
1.29386 -0.163145 0
1.29379 -0.12436 0
1.29327 -0.31367 0
1.29481 -0.255275 0
1.29124 -0.203112 0
1.27026 -0.308209 0
1.26233 -0.258522 0
1.24541 -0.206601 0
1.24601 -0.292507 0
1.22285 -0.24623 0
1.19637 -0.198457 0
1.29124 -0.203112 0
1.29386 -0.163145 0
1.29379 -0.12436 0
1.24541 -0.206601 0
1.24173 -0.169172 0
1.23268 -0.128819 0
1.19637 -0.198457 0
1.18219 -0.162314 0
1.1652 -0.124041 0
1.38054 -0.104669 0
1.39146 -0.0774345 0
1.40125 -0.0505636 0
1.34117 -0.121015 0
1.34794 -0.0901524 0
1.35243 -0.0592518 0
1.29379 -0.12436 0
1.29423 -0.0923991 0
1.29306 -0.0599742 0
1.40125 -0.0505636 0
1.40441 -0.0257079 0
1.40625 0 0
1.35243 -0.0592518 0
1.35385 -0.0310735 0
1.35352 0 0
1.29306 -0.0599742 0
1.29143 -0.0308044 0
1.28906 0 0
1.29379 -0.12436 0
1.29423 -0.0923991 0
1.29306 -0.0599742 0
1.23268 -0.128819 0
1.22899 -0.0974939 0
1.22195 -0.063101 0
1.1652 -0.124041 0
1.15461 -0.0935464 0
1.14179 -0.060254 0
1.29306 -0.0599742 0
1.29143 -0.0308044 0
1.28906 0 0
1.22195 -0.063101 0
1.21836 -0.0333131 0
1.21289 0 0
1.14179 -0.060254 0
1.13398 -0.0312642 0
1.125 0 0
1.83796 0.287427 0
1.94185 0.172346 0
1.9757 0.0809823 0
1.81635 0.209246 0
1.84489 0.153371 0
1.86938 0.0795891 0
1.59344 0.18156 0
1.62474 0.135685 0
1.64643 0.0814937 0
1.9757 0.0809823 0
2.004 -0.0270595 0
1.98411 -0.111026 0
1.86938 0.0795891 0
1.85922 0.00256167 0
1.83915 -0.0787063 0
1.64643 0.0814937 0
1.64632 0.0189116 0
1.63657 -0.0450322 0
1.59344 0.18156 0
1.62474 0.135685 0
1.64643 0.0814937 0
1.46038 0.0949606 0
1.48136 0.0678468 0
1.49883 0.0318438 0
1.34218 0.0772323 0
1.35032 0.0590478 0
1.35338 0.0355774 0
1.64643 0.0814937 0
1.64632 0.0189116 0
1.63657 -0.0450322 0
1.49883 0.0318438 0
1.49727 -0.00690949 0
1.4877 -0.0488824 0
1.35338 0.0355774 0
1.34276 0.00735116 0
1.32645 -0.0228083 0
1.98411 -0.111026 0
1.96187 -0.20164 0
1.89553 -0.273797 0
1.83915 -0.0787063 0
1.79134 -0.15299 0
1.72986 -0.216866 0
1.63657 -0.0450322 0
1.60446 -0.105032 0
1.56542 -0.159153 0
1.89553 -0.273797 0
1.81424 -0.335206 0
1.72672 -0.388338 0
1.72986 -0.216866 0
1.66435 -0.267228 0
1.58372 -0.304585 0
1.56542 -0.159153 0
1.50635 -0.201218 0
1.44551 -0.238674 0
1.63657 -0.0450322 0
1.60446 -0.105032 0
1.56542 -0.159153 0
1.4877 -0.0488824 0
1.46114 -0.0884604 0
1.42521 -0.126262 0
1.32645 -0.0228083 0
1.29684 -0.0527128 0
1.26086 -0.0809401 0
1.56542 -0.159153 0
1.50635 -0.201218 0
1.44551 -0.238674 0
1.42521 -0.126262 0
1.37902 -0.157604 0
1.32434 -0.18226 0
1.26086 -0.0809401 0
1.21375 -0.103983 0
1.1596 -0.122891 0
1.34218 0.0772323 0
1.35032 0.0590478 0
1.35338 0.0355774 0
1.16235 0.0515068 0
1.16557 0.0413448 0
1.16663 0.0259542 0
0.949876 0.0420034 0
0.954371 0.0366481 0
0.956805 0.0282877 0
1.35338 0.0355774 0
1.34276 0.00735116 0
1.32645 -0.0228083 0
1.16663 0.0259542 0
1.1574 0.00681343 0
1.14233 -0.0142433 0
0.956805 0.0282877 0
0.950453 0.0168493 0
0.939215 0.00395667 0
0.949876 0.0420034 0
0.954371 0.0366481 0
0.956805 0.0282877 0
0.559772 0.0152946 0
0.574623 0.0138116 0
0.589725 0.0111454 0
0 0 0
0 0 0
0 0 0
0.956805 0.0282877 0
0.950453 0.0168493 0
0.939215 0.00395667 0
0.589725 0.0111454 0
0.597292 0.00771365 0
0.600274 0.00341346 0
0 0 0
0 0 0
0 0 0
1.32645 -0.0228083 0
1.29684 -0.0527128 0
1.26086 -0.0809401 0
1.14233 -0.0142433 0
1.11745 -0.0352216 0
1.0849 -0.0550428 0
0.939215 0.00395667 0
0.918857 -0.00945579 0
0.892403 -0.0225319 0
1.26086 -0.0809401 0
1.21375 -0.103983 0
1.1596 -0.122891 0
1.0849 -0.0550428 0
1.04634 -0.0719469 0
1.00067 -0.0862377 0
0.892403 -0.0225319 0
0.859352 -0.0336778 0
0.819559 -0.0428294 0
0.939215 0.00395667 0
0.918857 -0.00945579 0
0.892403 -0.0225319 0
0.600274 0.00341346 0
0.5953 -0.000786755 0
0.582415 -0.00550041 0
0 0 0
0 0 0
0 0 0
0.892403 -0.0225319 0
0.859352 -0.0336778 0
0.819559 -0.0428294 0
0.582415 -0.00550041 0
0.564061 -0.00948851 0
0.53662 -0.0131777 0
0 0 0
0 0 0
0 0 0
1.11102 -0.146811 0
1.1191 -0.0634063 0
1.21728 0.0252918 0
1.2371 -0.27201 0
1.27095 -0.161974 0
1.30476 -0.0589538 0
1.39279 -0.237558 0
1.32437 -0.134611 0
1.2915 -0.0596305 0
1.21728 0.0252918 0
1.26761 0.124272 0
1.37767 0.226356 0
1.30476 -0.0589538 0
1.35488 0.0444351 0
1.41328 0.140192 0
1.2915 -0.0596305 0
1.28245 0.0256593 0
1.31095 0.0906413 0
1.39279 -0.237558 0
1.32437 -0.134611 0
1.2915 -0.0596305 0
1.30018 -0.156651 0
1.25903 -0.10842 0
1.23468 -0.0585636 0
1.23972 -0.120669 0
1.22396 -0.0857015 0
1.20181 -0.0521698 0
1.2915 -0.0596305 0
1.28245 0.0256593 0
1.31095 0.0906413 0
1.23468 -0.0585636 0
1.24423 0.000607837 0
1.26913 0.0466157 0
1.20181 -0.0521698 0
1.20677 -0.00942205 0
1.21711 0.0257574 0
1.37767 0.226356 0
1.48144 0.302068 0
1.60331 0.324436 0
1.41328 0.140192 0
1.51416 0.218577 0
1.62491 0.255772 0
1.31095 0.0906413 0
1.35495 0.151875 0
1.42699 0.181521 0
1.60331 0.324436 0
1.70726 0.326913 0
1.83796 0.287427 0
1.62491 0.255772 0
1.72217 0.250121 0
1.81635 0.209246 0
1.42699 0.181521 0
1.50601 0.196866 0
1.59344 0.18156 0
1.31095 0.0906413 0
1.35495 0.151875 0
1.42699 0.181521 0
1.26913 0.0466157 0
1.30851 0.0843791 0
1.35856 0.103745 0
1.21711 0.0257574 0
1.24308 0.0578203 0
1.27405 0.0767788 0
1.42699 0.181521 0
1.50601 0.196866 0
1.59344 0.18156 0
1.35856 0.103745 0
1.40641 0.10819 0
1.46038 0.0949606 0
1.27405 0.0767788 0
1.30877 0.0845366 0
1.34218 0.0772323 0
1.23972 -0.120669 0
1.22396 -0.0857015 0
1.20181 -0.0521698 0
1.13328 -0.0709077 0
1.10375 -0.0511695 0
1.08524 -0.0320743 0
0.888197 -0.0360219 0
0.877046 -0.0273926 0
0.86297 -0.0172238 0
1.20181 -0.0521698 0
1.20677 -0.00942205 0
1.21711 0.0257574 0
1.08524 -0.0320743 0
1.07715 -0.00675194 0
1.08215 0.0146066 0
0.86297 -0.0172238 0
0.864659 -0.00280171 0
0.870835 0.0109942 0
0.888197 -0.0360219 0
0.877046 -0.0273926 0
0.86297 -0.0172238 0
0.475653 -0.0108202 0
0.457078 -0.00717738 0
0.456829 -0.00368989 0
0 0 0
0 0 0
0 0 0
0.86297 -0.0172238 0
0.864659 -0.00280171 0
0.870835 0.0109942 0
0.456829 -0.00368989 0
0.453041 0.000849637 0
0.466154 0.00539726 0
0 0 0
0 0 0
0 0 0
1.21711 0.0257574 0
1.24308 0.0578203 0
1.27405 0.0767788 0
1.08215 0.0146066 0
1.09383 0.034202 0
1.11551 0.0472143 0
0.870835 0.0109942 0
0.886362 0.0247799 0
0.906533 0.0352805 0
1.27405 0.0767788 0
1.30877 0.0845366 0
1.34218 0.0772323 0
1.11551 0.0472143 0
1.13678 0.0534245 0
1.16235 0.0515068 0
0.906533 0.0352805 0
0.927931 0.0414397 0
0.949876 0.0420034 0
0.870835 0.0109942 0
0.886362 0.0247799 0
0.906533 0.0352805 0
0.466154 0.00539726 0
0.478715 0.00939064 0
0.504635 0.0127465 0
0 0 0
0 0 0
0 0 0
0.906533 0.0352805 0
0.927931 0.0414397 0
0.949876 0.0420034 0
0.504635 0.0127465 0
0.528637 0.0143778 0
0.559772 0.0152946 0
0 0 0
0 0 0
0 0 0
0.310445 -0.304544 0
0.171422 0.0195755 0
-0.0193124 0.436273 0
-0.016455 -0.102927 0
-0.106533 0.221101 0
-0.266621 0.562845 0
-0.157086 -0.0168681 0
-0.229782 0.344779 0
-0.371588 0.608896 0
-0.0193124 0.436273 0
-0.144903 0.734814 0
-0.307179 0.864114 0
-0.266621 0.562845 0
-0.415066 0.799235 0
-0.53503 0.984468 0
-0.371588 0.608896 0
-0.509374 0.909478 0
-0.513723 1.09464 0
-0.157086 -0.0168681 0
-0.229782 0.344779 0
-0.371588 0.608896 0
-0.179887 0.192179 0
-0.211651 0.559653 0
-0.316963 0.775592 0
-0.120873 0.280432 0
-0.110137 0.53113 0
-0.0882648 0.668001 0
-0.371588 0.608896 0
-0.509374 0.909478 0
-0.513723 1.09464 0
-0.316963 0.775592 0
-0.256283 0.931087 0
-0.221799 1.0039 0
-0.0882648 0.668001 0
0.10819 0.730749 0
0.191815 0.861064 0
-0.307179 0.864114 0
-0.454686 1.0383 0
-0.541077 1.12375 0
-0.53503 0.984468 0
-0.604874 1.14749 0
-0.569397 1.14496 0
-0.513723 1.09464 0
-0.505557 1.17207 0
-0.390312 1.07339 0
-0.541077 1.12375 0
-0.580293 1.00554 0
-0.564143 0.793479 0
-0.569397 1.14496 0
-0.578613 0.953541 0
-0.579135 0.725531 0
-0.390312 1.07339 0
-0.415869 0.885223 0
-0.411574 0.677041 0
-0.513723 1.09464 0
-0.505557 1.17207 0
-0.390312 1.07339 0
-0.221799 1.0039 0
-0.147214 1.0924 0
0.0196495 0.971757 0
0.191815 0.861064 0
0.425264 0.954473 0
0.55789 0.899845 0
-0.390312 1.07339 0
-0.415869 0.885223 0
-0.411574 0.677041 0
0.0196495 0.971757 0
-0.0156302 0.834415 0
0.0289939 0.594733 0
0.55789 0.899845 0
0.542229 0.83832 0
0.58106 0.607827 0
-0.120873 0.280432 0
-0.110137 0.53113 0
-0.0882648 0.668001 0
0.0447747 0.356922 0
0.061718 0.462061 0
0.302319 0.555118 0
0.298472 0.234503 0
0.425084 0.184164 0
0.793787 0.285993 0
-0.0882648 0.668001 0
0.10819 0.730749 0
0.191815 0.861064 0
0.302319 0.555118 0
0.533241 0.604555 0
0.76945 0.710513 0
0.793787 0.285993 0
0.906224 0.330679 0
1.11159 0.497091 0
0.298472 0.234503 0
0.425084 0.184164 0
0.793787 0.285993 0
0.757123 -0.0475824 0
0.91781 -0.00578545 0
1.06641 0.118298 0
1.11102 -0.146811 0
1.1191 -0.0634063 0
1.21728 0.0252918 0
0.793787 0.285993 0
0.906224 0.330679 0
1.11159 0.497091 0
1.06641 0.118298 0
1.15968 0.217837 0
1.2578 0.350234 0
1.21728 0.0252918 0
1.26761 0.124272 0
1.37767 0.226356 0
0.191815 0.861064 0
0.425264 0.954473 0
0.55789 0.899845 0
0.76945 0.710513 0
0.970404 0.79862 0
1.11477 0.822592 0
1.11159 0.497091 0
1.32792 0.606068 0
1.58333 0.659187 0
0.55789 0.899845 0
0.542229 0.83832 0
0.58106 0.607827 0
1.11477 0.822592 0
1.1091 0.72805 0
1.102 0.554018 0
1.58333 0.659187 0
1.69353 0.610564 0
1.75902 0.473245 0
1.11159 0.497091 0
1.32792 0.606068 0
1.58333 0.659187 0
1.2578 0.350234 0
1.41232 0.442963 0
1.60643 0.51708 0
1.37767 0.226356 0
1.48144 0.302068 0
1.60331 0.324436 0
1.58333 0.659187 0
1.69353 0.610564 0
1.75902 0.473245 0
1.60643 0.51708 0
1.80066 0.520366 0
1.98405 0.44801 0
1.60331 0.324436 0
1.70726 0.326913 0
1.83796 0.287427 0
2.21117 -0.624537 0
2.33264 -0.505934 0
2.38768 -0.372223 0
2.16954 -0.740684 0
2.14137 -0.597406 0
2.10735 -0.438316 0
1.94839 -0.793472 0
2.00612 -0.662969 0
1.91421 -0.429806 0
2.38768 -0.372223 0
2.3664 -0.213797 0
2.31607 -0.0679731 0
2.10735 -0.438316 0
2.00538 -0.256737 0
1.91381 -0.0915822 0
1.91421 -0.429806 0
1.81811 -0.232681 0
1.63468 -0.00700849 0
1.94839 -0.793472 0
2.00612 -0.662969 0
1.91421 -0.429806 0
1.98298 -0.787084 0
1.84658 -0.515124 0
1.6928 -0.242317 0
1.68866 -0.597427 0
1.40983 -0.347958 0
1.36173 -0.120032 0
1.91421 -0.429806 0
1.81811 -0.232681 0
1.63468 -0.00700849 0
1.6928 -0.242317 0
1.51846 -0.0222205 0
1.3504 0.193706 0
1.36173 -0.120032 0
1.16847 0.102954 0
1.13285 0.284216 0
2.31607 -0.0679731 0
2.23616 0.0599966 0
2.15067 0.160537 0
1.91381 -0.0915822 0
1.75279 0.0504687 0
1.6126 0.153832 0
1.63468 -0.00700849 0
1.4434 0.123276 0
1.20118 0.244777 0
2.15067 0.160537 0
2.10056 0.231275 0
2.05279 0.281168 0
1.6126 0.153832 0
1.48975 0.213376 0
1.42043 0.24175 0
1.20118 0.244777 0
1.016 0.243183 0
0.793261 0.239417 0
1.63468 -0.00700849 0
1.4434 0.123276 0
1.20118 0.244777 0
1.3504 0.193706 0
1.15261 0.339083 0
0.918126 0.456998 0
1.13285 0.284216 0
0.877101 0.456736 0
0.709617 0.583499 0
1.20118 0.244777 0
1.016 0.243183 0
0.793261 0.239417 0
0.918126 0.456998 0
0.744992 0.472728 0
0.547338 0.434465 0
0.709617 0.583499 0
0.492409 0.618787 0
0.33103 0.575927 0
1.68866 -0.597427 0
1.40983 -0.347958 0
1.36173 -0.120032 0
1.21886 -0.562398 0
1.20568 -0.370646 0
1.06675 -0.0380301 0
1.03292 -0.576001 0
0.977563 -0.211949 0
0.704377 0.0831994 0
1.36173 -0.120032 0
1.16847 0.102954 0
1.13285 0.284216 0
1.06675 -0.0380301 0
0.949858 0.203253 0
0.779005 0.445192 0
0.704377 0.0831994 0
0.599624 0.361272 0
0.354509 0.60388 0
1.03292 -0.576001 0
0.977563 -0.211949 0
0.704377 0.0831994 0
0.737303 -0.416727 0
0.537443 -0.0685944 0
0.375434 0.189008 0
0.310445 -0.304544 0
0.171422 0.0195755 0
-0.0193124 0.436273 0
0.704377 0.0831994 0
0.599624 0.361272 0
0.354509 0.60388 0
0.375434 0.189008 0
0.221748 0.504306 0
0.0186251 0.714968 0
-0.0193124 0.436273 0
-0.144903 0.734814 0
-0.307179 0.864114 0
1.13285 0.284216 0
0.877101 0.456736 0
0.709617 0.583499 0
0.779005 0.445192 0
0.588026 0.603338 0
0.344411 0.74658 0
0.354509 0.60388 0
0.230937 0.792242 0
-0.00515655 0.878931 0
0.709617 0.583499 0
0.492409 0.618787 0
0.33103 0.575927 0
0.344411 0.74658 0
0.237386 0.786861 0
0.095211 0.659502 0
-0.00515655 0.878931 0
-0.10928 0.898639 0
-0.146219 0.741193 0
0.354509 0.60388 0
0.230937 0.792242 0
-0.00515655 0.878931 0
0.0186251 0.714968 0
-0.122562 0.910425 0
-0.291547 1.02819 0
-0.307179 0.864114 0
-0.454686 1.0383 0
-0.541077 1.12375 0
-0.00515655 0.878931 0
-0.10928 0.898639 0
-0.146219 0.741193 0
-0.291547 1.02819 0
-0.394226 0.968051 0
-0.402208 0.78002 0
-0.541077 1.12375 0
-0.580293 1.00554 0
-0.564143 0.793479 0
0 0 0
0 0 0
0 0 0
0.428518 -0.0286796 0
0.492374 -0.030392 0
0.549161 -0.0312655 0
0.823729 -0.114367 0
0.913526 -0.117097 0
0.999767 -0.114956 0
0 0 0
0 0 0
0 0 0
0.549161 -0.0312655 0
0.609543 -0.0308415 0
0.662909 -0.0286572 0
0.999767 -0.114956 0
1.07039 -0.105365 0