# vtk DataFile Version 3.0
#This file was generated by the deal.II library on 2025/1/8 at 8:53:52
ASCII
DATASET UNSTRUCTURED_GRID

POINTS 8640 double
1.1 1.1 0
0.9625 1.09063 0
0.825 1.08125 0
1.0875 0.9625 0
0.951563 0.954297 0
0.815625 0.946094 0
1.075 0.825 0
0.940625 0.817969 0
0.80625 0.810937 0
0.825 1.08125 0
0.6875 1.07187 0
0.55 1.0625 0
0.815625 0.946094 0
0.679688 0.937891 0
0.54375 0.929688 0
0.80625 0.810937 0
0.671875 0.803906 0
0.5375 0.796875 0
1.075 0.825 0
0.940625 0.817969 0
0.80625 0.810937 0
1.0625 0.6875 0
0.929688 0.681641 0
0.796875 0.675781 0
1.05 0.55 0
0.91875 0.545313 0
0.7875 0.540625 0
0.80625 0.810937 0
0.671875 0.803906 0
0.5375 0.796875 0
0.796875 0.675781 0
0.664062 0.669922 0
0.53125 0.664062 0
0.7875 0.540625 0
0.65625 0.535937 0
0.525 0.53125 0
0.55 1.0625 0
0.4125 1.05313 0
0.275 1.04375 0
0.54375 0.929688 0
0.407813 0.921484 0
0.271875 0.913281 0
0.5375 0.796875 0
0.403125 0.789844 0
0.26875 0.782813 0
0.275 1.04375 0
0.1375 1.03437 0
0 1.025 0
0.271875 0.913281 0
0.135938 0.905078 0
0 0.896875 0
0.26875 0.782813 0
0.134375 0.775781 0
0 0.76875 0
0.5375 0.796875 0
0.403125 0.789844 0
0.26875 0.782813 0
0.53125 0.664062 0
0.398438 0.658203 0
0.265625 0.652344 0
0.525 0.53125 0
0.39375 0.526563 0
0.2625 0.521875 0
0.26875 0.782813 0
0.134375 0.775781 0
0 0.76875 0
0.265625 0.652344 0
0.132812 0.646484 0
0 0.640625 0
0.2625 0.521875 0
0.13125 0.517187 0
0 0.5125 0
1.05 0.55 0
0.91875 0.545313 0
0.7875 0.540625 0
1.0375 0.4125 0
0.907812 0.408984 0
0.778125 0.405469 0
1.025 0.275 0
0.896875 0.272656 0
0.76875 0.270313 0
0.7875 0.540625 0
0.65625 0.535937 0
0.525 0.53125 0
0.778125 0.405469 0
0.648438 0.401953 0
0.51875 0.398438 0
0.76875 0.270313 0
0.640625 0.267969 0
0.5125 0.265625 0
1.025 0.275 0
0.896875 0.272656 0
0.76875 0.270313 0
1.0125 0.1375 0
0.885937 0.136328 0
0.759375 0.135156 0
1 0 0
0.875 0 0
0.75 0 0
0.76875 0.270313 0
0.640625 0.267969 0
0.5125 0.265625 0
0.759375 0.135156 0
0.632812 0.133984 0
0.50625 0.132812 0
0.75 0 0
0.625 0 0
0.5 0 0
0.525 0.53125 0
0.39375 0.526563 0
0.2625 0.521875 0
0.51875 0.398438 0
0.389062 0.394922 0
0.259375 0.391406 0
0.5125 0.265625 0
0.384375 0.263281 0
0.25625 0.260937 0
0.2625 0.521875 0
0.13125 0.517187 0
0 0.5125 0
0.259375 0.391406 0
0.129688 0.387891 0
0 0.384375 0
0.25625 0.260937 0
0.128125 0.258594 0
0 0.25625 0
0.5125 0.265625 0
0.384375 0.263281 0
0.25625 0.260937 0
0.50625 0.132812 0
0.379687 0.131641 0
0.253125 0.130469 0
0.5 0 0
0.375 0 0
0.25 0 0
0.25625 0.260937 0
0.128125 0.258594 0
0 0.25625 0
0.253125 0.130469 0
0.126562 0.129297 0
0 0.128125 0
0.25 0 0
0.125 0 0
0 0 0
2 1 0
1.8875 1.0125 0
1.775 1.025 0
2 0.875 0
1.88594 0.885938 0
1.77188 0.896875 0
2 0.75 0
1.88437 0.759375 0
1.76875 0.76875 0
1.775 1.025 0
1.6625 1.0375 0
1.55 1.05 0
1.77188 0.896875 0
1.65781 0.907813 0
1.54375 0.91875 0
1.76875 0.76875 0
1.65313 0.778125 0
1.5375 0.7875 0
2 0.75 0
1.88437 0.759375 0
1.76875 0.76875 0
2 0.625 0
1.88281 0.632812 0
1.76562 0.640625 0
2 0.5 0
1.88125 0.50625 0
1.7625 0.5125 0
1.76875 0.76875 0
1.65313 0.778125 0
1.5375 0.7875 0
1.76562 0.640625 0
1.64844 0.648438 0
1.53125 0.65625 0
1.7625 0.5125 0
1.64375 0.51875 0
1.525 0.525 0
1.55 1.05 0
1.4375 1.0625 0
1.325 1.075 0
1.54375 0.91875 0
1.42969 0.929688 0
1.31563 0.940625 0
1.5375 0.7875 0
1.42188 0.796875 0
1.30625 0.80625 0
1.325 1.075 0
1.2125 1.0875 0
1.1 1.1 0
1.31563 0.940625 0
1.20156 0.951563 0
1.0875 0.9625 0
1.30625 0.80625 0
1.19063 0.815625 0
1.075 0.825 0
1.5375 0.7875 0
1.42188 0.796875 0
1.30625 0.80625 0
1.53125 0.65625 0
1.41406 0.664062 0
1.29688 0.671875 0
1.525 0.525 0
1.40625 0.53125 0
1.2875 0.5375 0
1.30625 0.80625 0
1.19063 0.815625 0
1.075 0.825 0
1.29688 0.671875 0
1.17969 0.679688 0
1.0625 0.6875 0
1.2875 0.5375 0
1.16875 0.54375 0
1.05 0.55 0
2 0.5 0
1.88125 0.50625 0
1.7625 0.5125 0
2 0.375 0
1.87969 0.379687 0
1.75938 0.384375 0
2 0.25 0
1.87813 0.253125 0
1.75625 0.25625 0
1.7625 0.5125 0
1.64375 0.51875 0
1.525 0.525 0
1.75938 0.384375 0
1.63906 0.389063 0
1.51875 0.39375 0
1.75625 0.25625 0
1.63438 0.259375 0
1.5125 0.2625 0
2 0.25 0
1.87813 0.253125 0
1.75625 0.25625 0
2 0.125 0
1.87656 0.126562 0
1.75313 0.128125 0
2 0 0
1.875 0 0
1.75 0 0
1.75625 0.25625 0
1.63438 0.259375 0
1.5125 0.2625 0
1.75313 0.128125 0
1.62969 0.129688 0
1.50625 0.13125 0
1.75 0 0
1.625 0 0
1.5 0 0
1.525 0.525 0
1.40625 0.53125 0
1.2875 0.5375 0
1.51875 0.39375 0
1.39844 0.398438 0
1.27813 0.403125 0
1.5125 0.2625 0
1.39062 0.265625 0
1.26875 0.26875 0
1.2875 0.5375 0
1.16875 0.54375 0
1.05 0.55 0
1.27813 0.403125 0
1.15781 0.407813 0
1.0375 0.4125 0
1.26875 0.26875 0
1.14688 0.271875 0
1.025 0.275 0
1.5125 0.2625 0
1.39062 0.265625 0
1.26875 0.26875 0
1.50625 0.13125 0
1.38281 0.132812 0
1.25937 0.134375 0
1.5 0 0
1.375 0 0
1.25 0 0
1.26875 0.26875 0
1.14688 0.271875 0
1.025 0.275 0
1.25937 0.134375 0
1.13594 0.135938 0
1.0125 0.1375 0
1.25 0 0
1.125 0 0
1 0 0
1 2 0
0.875 2.00625 0
0.75 2.0125 0
1.0125 1.8875 0
0.885938 1.8918 0
0.759375 1.89609 0
1.025 1.775 0
0.896875 1.77734 0
0.76875 1.77969 0
0.75 2.0125 0
0.625 2.01875 0
0.5 2.025 0
0.759375 1.89609 0
0.632812 1.90039 0
0.50625 1.90469 0
0.76875 1.77969 0
0.640625 1.78203 0
0.5125 1.78437 0
1.025 1.775 0
0.896875 1.77734 0
0.76875 1.77969 0
1.0375 1.6625 0
0.907813 1.66289 0
0.778125 1.66328 0
1.05 1.55 0
0.91875 1.54844 0
0.7875 1.54688 0
0.76875 1.77969 0
0.640625 1.78203 0
0.5125 1.78437 0
0.778125 1.66328 0
0.648438 1.66367 0
0.51875 1.66406 0
0.7875 1.54688 0
0.65625 1.54531 0
0.525 1.54375 0
0.5 2.025 0
0.375 2.03125 0
0.25 2.0375 0
0.50625 1.90469 0
0.379687 1.90898 0
0.253125 1.91328 0
0.5125 1.78437 0
0.384375 1.78672 0
0.25625 1.78906 0
0.25 2.0375 0
0.125 2.04375 0
0 2.05 0
0.253125 1.91328 0
0.126562 1.91758 0
0 1.92187 0
0.25625 1.78906 0
0.128125 1.79141 0
0 1.79375 0
0.5125 1.78437 0
0.384375 1.78672 0
0.25625 1.78906 0
0.51875 1.66406 0
0.389062 1.66445 0
0.259375 1.66484 0
0.525 1.54375 0
0.39375 1.54219 0
0.2625 1.54062 0
0.25625 1.78906 0
0.128125 1.79141 0
0 1.79375 0
0.259375 1.66484 0
0.129688 1.66523 0
0 1.66562 0
0.2625 1.54062 0
0.13125 1.53906 0
0 1.5375 0
1.05 1.55 0
0.91875 1.54844 0
0.7875 1.54688 0
1.0625 1.4375 0
0.929688 1.43398 0
0.796875 1.43047 0
1.075 1.325 0
0.940625 1.31953 0
0.80625 1.31406 0
0.7875 1.54688 0
0.65625 1.54531 0
0.525 1.54375 0
0.796875 1.43047 0
0.664062 1.42695 0
0.53125 1.42344 0
0.80625 1.31406 0
0.671875 1.30859 0
0.5375 1.30312 0
1.075 1.325 0
0.940625 1.31953 0
0.80625 1.31406 0
1.0875 1.2125 0
0.951563 1.20508 0
0.815625 1.19766 0
1.1 1.1 0
0.9625 1.09063 0
0.825 1.08125 0
0.80625 1.31406 0
0.671875 1.30859 0
0.5375 1.30312 0
0.815625 1.19766 0
0.679688 1.19023 0
0.54375 1.18281 0
0.825 1.08125 0
0.6875 1.07187 0
0.55 1.0625 0
0.525 1.54375 0
0.39375 1.54219 0
0.2625 1.54062 0
0.53125 1.42344 0
0.398438 1.41992 0
0.265625 1.41641 0
0.5375 1.30312 0
0.403125 1.29766 0
0.26875 1.29219 0
0.2625 1.54062 0
0.13125 1.53906 0
0 1.5375 0
0.265625 1.41641 0
0.132812 1.41289 0
0 1.40937 0
0.26875 1.29219 0
0.134375 1.28672 0
0 1.28125 0
0.5375 1.30312 0
0.403125 1.29766 0
0.26875 1.29219 0
0.54375 1.18281 0
0.407813 1.17539 0
0.271875 1.16797 0
0.55 1.0625 0
0.4125 1.05313 0
0.275 1.04375 0
0.26875 1.29219 0
0.134375 1.28672 0
0 1.28125 0
0.271875 1.16797 0
0.135938 1.16055 0
0 1.15312 0
0.275 1.04375 0
0.1375 1.03437 0
0 1.025 0
2.9 1.1 0
2.7875 1.0875 0
2.675 1.075 0
2.9125 0.9625 0
2.79844 0.951563 0
2.68438 0.940625 0
2.925 0.825 0
2.80938 0.815625 0
2.69375 0.80625 0
2.675 1.075 0
2.5625 1.0625 0
2.45 1.05 0
2.68438 0.940625 0
2.57031 0.929688 0
2.45625 0.91875 0
2.69375 0.80625 0
2.57812 0.796875 0
2.4625 0.7875 0
2.925 0.825 0
2.80938 0.815625 0
2.69375 0.80625 0
2.9375 0.6875 0
2.82031 0.679688 0
2.70312 0.671875 0
2.95 0.55 0
2.83125 0.54375 0
2.7125 0.5375 0
2.69375 0.80625 0
2.57812 0.796875 0
2.4625 0.7875 0
2.70312 0.671875 0
2.58594 0.664062 0
2.46875 0.65625 0
2.7125 0.5375 0
2.59375 0.53125 0
2.475 0.525 0
2.45 1.05 0
2.3375 1.0375 0
2.225 1.025 0
2.45625 0.91875 0
2.34219 0.907813 0
2.22813 0.896875 0
2.4625 0.7875 0
2.34688 0.778125 0
2.23125 0.76875 0
2.225 1.025 0
2.1125 1.0125 0
2 1 0
2.22813 0.896875 0
2.11406 0.885938 0
2 0.875 0
2.23125 0.76875 0
2.11563 0.759375 0
2 0.75 0
2.4625 0.7875 0
2.34688 0.778125 0
2.23125 0.76875 0
2.46875 0.65625 0
2.35156 0.648438 0
2.23438 0.640625 0
2.475 0.525 0
2.35625 0.51875 0
2.2375 0.5125 0
2.23125 0.76875 0
2.11563 0.759375 0
2 0.75 0
2.23438 0.640625 0
2.11719 0.632812 0
2 0.625 0
2.2375 0.5125 0
2.11875 0.50625 0
2 0.5 0
2.95 0.55 0
2.83125 0.54375 0
2.7125 0.5375 0
2.9625 0.4125 0
2.84219 0.407813 0
2.72188 0.403125 0
2.975 0.275 0
2.85313 0.271875 0
2.73125 0.26875 0
2.7125 0.5375 0
2.59375 0.53125 0
2.475 0.525 0
2.72188 0.403125 0
2.60156 0.398438 0
2.48125 0.39375 0
2.73125 0.26875 0
2.60938 0.265625 0
2.4875 0.2625 0
2.975 0.275 0
2.85313 0.271875 0
2.73125 0.26875 0
2.9875 0.1375 0
2.86406 0.135938 0
2.74063 0.134375 0
3 0 0
2.875 0 0
2.75 0 0
2.73125 0.26875 0
2.60938 0.265625 0
2.4875 0.2625 0
2.74063 0.134375 0
2.61719 0.132812 0
2.49375 0.13125 0
2.75 0 0
2.625 0 0
2.5 0 0
2.475 0.525 0
2.35625 0.51875 0
2.2375 0.5125 0
2.48125 0.39375 0
2.36094 0.389063 0
2.24062 0.384375 0
2.4875 0.2625 0
2.36562 0.259375 0
2.24375 0.25625 0
2.2375 0.5125 0
2.11875 0.50625 0
2 0.5 0
2.24062 0.384375 0
2.12031 0.379687 0
2 0.375 0
2.24375 0.25625 0
2.12188 0.253125 0
2 0.25 0
2.4875 0.2625 0
2.36562 0.259375 0
2.24375 0.25625 0
2.49375 0.13125 0
2.37031 0.129688 0
2.24688 0.128125 0
2.5 0 0
2.375 0 0
2.25 0 0
2.24375 0.25625 0
2.12188 0.253125 0
2 0.25 0
2.24688 0.128125 0
2.12344 0.126562 0
2 0.125 0
2.25 0 0
2.125 0 0
2 0 0
4 1 0
3.8625 1.0125 0
3.725 1.025 0
4 0.875 0
3.86406 0.885938 0
3.72813 0.896875 0
4 0.75 0
3.86563 0.759375 0
3.73125 0.76875 0
3.725 1.025 0
3.5875 1.0375 0
3.45 1.05 0
3.72813 0.896875 0
3.59219 0.907813 0
3.45625 0.91875 0
3.73125 0.76875 0
3.59688 0.778125 0
3.4625 0.7875 0
4 0.75 0
3.86563 0.759375 0
3.73125 0.76875 0
4 0.625 0
3.86719 0.632812 0
[...]
POINT_DATA 8640
VECTORS v double
1.20295 -0.234031 0
1.18395 -0.183113 0
1.17145 -0.136877 0
1.13057 -0.210776 0
1.10423 -0.166755 0
1.08818 -0.129888 0
1.04281 -0.184155 0
1.01577 -0.147667 0
0.99112 -0.114935 0
1.17145 -0.136877 0
1.16095 -0.103239 0
1.15374 -0.0731206 0
1.08818 -0.129888 0
1.07075 -0.0979559 0
1.06096 -0.0719411 0
0.99112 -0.114935 0
0.971859 -0.0873224 0
0.955422 -0.0638386 0
1.04281 -0.184155 0
1.01577 -0.147667 0
0.99112 -0.114935 0
0.93132 -0.145767 0
0.899479 -0.118042 0
0.872598 -0.0932877 0
0.79858 -0.114648 0
0.766919 -0.0936615 0
0.739993 -0.0744397 0
0.99112 -0.114935 0
0.971859 -0.0873224 0
0.955422 -0.0638386 0
0.872598 -0.0932877 0
0.850736 -0.0718585 0
0.832933 -0.0531792 0
0.739993 -0.0744397 0
0.717538 -0.057468 0
0.699345 -0.0426137 0
1.15374 -0.0731206 0
1.14602 -0.051421 0
1.13969 -0.0309623 0
1.06096 -0.0719411 0
1.04847 -0.0501289 0
1.04178 -0.0318332 0
0.955422 -0.0638386 0
0.942176 -0.0444106 0
0.931661 -0.0279995 0
1.13969 -0.0309623 0
1.13215 -0.0154711 0
1.125 0 0
1.04178 -0.0318332 0
1.03157 -0.0155424 0
1.02539 0 0
0.931661 -0.0279995 0
0.921569 -0.0135045 0
0.914062 0 0
0.955422 -0.0638386 0
0.942176 -0.0444106 0
0.931661 -0.0279995 0
0.832933 -0.0531792 0
0.818601 -0.0371231 0
0.807528 -0.0237223 0
0.699345 -0.0426137 0
0.684097 -0.0298912 0
0.672518 -0.0191948 0
0.931661 -0.0279995 0
0.921569 -0.0135045 0
0.914062 0 0
0.807528 -0.0237223 0
0.797998 -0.0118021 0
0.791016 0 0
0.672518 -0.0191948 0
0.66284 -0.00957561 0
0.65625 0 0
0.79858 -0.114648 0
0.766919 -0.0936615 0
0.739993 -0.0744397 0
0.649975 -0.0772028 0
0.61769 -0.0629474 0
0.590297 -0.0498244 0
0.479336 -0.0459686 0
0.448829 -0.0378183 0
0.423357 -0.0303199 0
0.739993 -0.0744397 0
0.717538 -0.057468 0
0.699345 -0.0426137 0
0.590297 -0.0498244 0
0.56759 -0.0382267 0
0.549423 -0.0281814 0
0.423357 -0.0303199 0
0.4022 -0.0235538 0
0.385758 -0.0177304 0
0.479336 -0.0459686 0
0.448829 -0.0378183 0
0.423357 -0.0303199 0
0.271695 -0.0133313 0
0.248863 -0.0106271 0
0.230945 -0.00828726 0
0 0 0
0 0 0
0 0 0
0.423357 -0.0303199 0
0.4022 -0.0235538 0
0.385758 -0.0177304 0
0.230945 -0.00828726 0
0.215732 -0.00619725 0
0.204419 -0.0045408 0
0 0 0
0 0 0
0 0 0
0.699345 -0.0426137 0
0.684097 -0.0298912 0
0.672518 -0.0191948 0
0.549423 -0.0281814 0
0.534642 -0.0196958 0
0.52364 -0.0125 0
0.385758 -0.0177304 0
0.372583 -0.0127456 0
0.363143 -0.00851684 0
0.672518 -0.0191948 0
0.66284 -0.00957561 0
0.65625 0 0
0.52364 -0.0125 0
0.515132 -0.00599221 0
0.509766 0 0
0.363143 -0.00851684 0
0.355946 -0.00455853 0
0.351562 0 0
0.385758 -0.0177304 0
0.372583 -0.0127456 0
0.363143 -0.00851684 0
0.204419 -0.0045408 0
0.19532 -0.00312013 0
0.188936 -0.00196507 0
0 0 0
0 0 0
0 0 0
0.363143 -0.00851684 0
0.355946 -0.00455853 0
0.351562 0 0
0.188936 -0.00196507 0
0.184193 -0.000871096 0
0.181641 0 0
0 0 0
0 0 0
0 0 0
1.63603 -0.452941 0
1.54424 -0.470983 0
1.48204 -0.471041 0
1.50297 -0.369908 0
1.43339 -0.381748 0
1.3696 -0.383538 0
1.37482 -0.296138 0
1.32207 -0.313608 0
1.26722 -0.318394 0
1.48204 -0.471041 0
1.39766 -0.447412 0
1.34036 -0.41426 0
1.3696 -0.383538 0
1.30601 -0.371142 0
1.25172 -0.350562 0
1.26722 -0.318394 0
1.21865 -0.31316 0
1.16861 -0.29673 0
1.37482 -0.296138 0
1.32207 -0.313608 0
1.26722 -0.318394 0
1.26546 -0.23233 0
1.21463 -0.241375 0
1.16242 -0.24285 0
1.1133 -0.164995 0
1.06443 -0.173782 0
1.01403 -0.177357 0
1.26722 -0.318394 0
1.21865 -0.31316 0
1.16861 -0.29673 0
1.16242 -0.24285 0
1.11232 -0.237365 0
1.06313 -0.225598 0
1.01403 -0.177357 0
0.968367 -0.176451 0
0.923639 -0.170606 0
1.34036 -0.41426 0
1.28148 -0.371959 0
1.24844 -0.325841 0
1.25172 -0.350562 0
1.20716 -0.319313 0
1.17279 -0.285183 0
1.16861 -0.29673 0
1.12985 -0.273502 0
1.09235 -0.244882 0
1.24844 -0.325841 0
1.21685 -0.280076 0
1.20295 -0.234031 0
1.17279 -0.285183 0
1.14662 -0.247155 0
1.13057 -0.210776 0
1.09235 -0.244882 0
1.0665 -0.21492 0
1.04281 -0.184155 0
1.16861 -0.29673 0
1.12985 -0.273502 0
1.09235 -0.244882 0
1.06313 -0.225598 0
1.02221 -0.209422 0
0.984552 -0.189609 0
0.923639 -0.170606 0
0.886052 -0.160604 0
0.851216 -0.147202 0
1.09235 -0.244882 0
1.0665 -0.21492 0
1.04281 -0.184155 0
0.984552 -0.189609 0
0.955835 -0.168276 0
0.93132 -0.145767 0
0.851216 -0.147202 0
0.823083 -0.131643 0
0.79858 -0.114648 0
1.1133 -0.164995 0
1.06443 -0.173782 0
1.01403 -0.177357 0
0.962955 -0.116698 0
0.91819 -0.122833 0
0.870666 -0.12503 0
0.791117 -0.0625275 0
0.747774 -0.0672236 0
0.700974 -0.0694617 0
1.01403 -0.177357 0
0.968367 -0.176451 0
0.923639 -0.170606 0
0.870666 -0.12503 0
0.826807 -0.123394 0
0.782396 -0.11812 0
0.700974 -0.0694617 0
0.657198 -0.0693605 0
0.612998 -0.0671265 0
0.791117 -0.0625275 0
0.747774 -0.0672236 0
0.700974 -0.0694617 0
0.508343 -0.0197547 0
0.477873 -0.0215333 0
0.443169 -0.022268 0
0 0 0
0 0 0
0 0 0
0.700974 -0.0694617 0
0.657198 -0.0693605 0
0.612998 -0.0671265 0
0.443169 -0.022268 0
0.410218 -0.0222842 0
0.376349 -0.0212927 0
0 0 0
0 0 0
0 0 0
0.923639 -0.170606 0
0.886052 -0.160604 0
0.851216 -0.147202 0
0.782396 -0.11812 0
0.74385 -0.110251 0
0.707284 -0.100176 0
0.612998 -0.0671265 0
0.574192 -0.0634153 0
0.537597 -0.058372 0
0.851216 -0.147202 0
0.823083 -0.131643 0
0.79858 -0.114648 0
0.707284 -0.100176 0
0.676749 -0.0891286 0
0.649975 -0.0772028 0
0.537597 -0.058372 0
0.506512 -0.0525334 0
0.479336 -0.0459686 0
0.612998 -0.0671265 0
0.574192 -0.0634153 0
0.537597 -0.058372 0
0.376349 -0.0212927 0
0.345875 -0.0198602 0
0.317616 -0.0178287 0
0 0 0
0 0 0
0 0 0
0.537597 -0.058372 0
0.506512 -0.0525334 0
0.479336 -0.0459686 0
0.317616 -0.0178287 0
0.292634 -0.0156676 0
0.271695 -0.0133313 0
0 0 0
0 0 0
0 0 0
1.25156 0.0731339 0
1.32353 0.071102 0
1.38015 0.0653936 0
1.25456 -0.000105765 0
1.3207 0.014822 0
1.3768 0.0247253 0
1.23811 -0.0680315 0
1.30204 -0.0373371 0
1.35704 -0.0155654 0
1.38015 0.0653936 0
1.42111 0.0583894 0
1.45126 0.0488108 0
1.3768 0.0247253 0
1.41549 0.027369 0
1.4464 0.0264216 0
1.35704 -0.0155654 0
1.39512 -0.00349859 0
1.42625 0.00347263 0
1.23811 -0.0680315 0
1.30204 -0.0373371 0
1.35704 -0.0155654 0
1.25116 -0.142392 0
1.30231 -0.093864 0
1.34759 -0.0582201 0
1.2567 -0.179496 0
1.29237 -0.125781 0
1.32589 -0.0844742 0
1.35704 -0.0155654 0
1.39512 -0.00349859 0
1.42625 0.00347263 0
1.34759 -0.0582201 0
1.37896 -0.0363043 0
1.40572 -0.0209008 0
1.32589 -0.0844742 0
1.35027 -0.0575697 0
1.37231 -0.0367188 0
1.45126 0.0488108 0
1.47359 0.0384162 0
1.48734 0.0262675 0
1.4464 0.0264216 0
1.46765 0.0220708 0
1.48215 0.016072 0
1.42625 0.00347263 0
1.44802 0.00589114 0
1.46375 0.00572939 0
1.48734 0.0262675 0
1.4975 0.0136745 0
1.5 0 0
1.48215 0.016072 0
1.49112 0.00881959 0
1.49414 0 0
1.46375 0.00572939 0
1.47305 0.00360761 0
1.47656 0 0
1.42625 0.00347263 0
1.44802 0.00589114 0
1.46375 0.00572939 0
1.40572 -0.0209008 0
1.42374 -0.0119666 0
1.43754 -0.00599816 0
1.37231 -0.0367188 0
1.38683 -0.0232623 0
1.39875 -0.0129445 0
1.46375 0.00572939 0
1.47305 0.00360761 0
1.47656 0 0
1.43754 -0.00599816 0
1.44444 -0.00249471 0
1.44727 0 0
1.39875 -0.0129445 0
1.40401 -0.0059993 0
1.40625 0 0
1.2567 -0.179496 0
1.29237 -0.125781 0
1.32589 -0.0844742 0
1.25353 -0.222702 0
1.27832 -0.163073 0
1.29939 -0.115108 0
1.25324 -0.234883 0
1.26088 -0.175775 0
1.26796 -0.127028 0
1.32589 -0.0844742 0
1.35027 -0.0575697 0
1.37231 -0.0367188 0
1.29939 -0.115108 0
1.31744 -0.0829434 0
1.33226 -0.0559515 0
1.26796 -0.127028 0
1.27612 -0.0925426 0
1.28337 -0.063475 0
1.25324 -0.234883 0
1.26088 -0.175775 0
1.26796 -0.127028 0
1.22642 -0.240689 0
1.22659 -0.188415 0
1.22018 -0.138176 0
1.20295 -0.234031 0
1.18395 -0.183113 0
1.17145 -0.136877 0
1.26796 -0.127028 0
1.27612 -0.0925426 0
1.28337 -0.063475 0
1.22018 -0.138176 0
1.22306 -0.104223 0
1.22115 -0.0726881 0
1.17145 -0.136877 0
1.16095 -0.103239 0
1.15374 -0.0731206 0
1.37231 -0.0367188 0
1.38683 -0.0232623 0
1.39875 -0.0129445 0
1.33226 -0.0559515 0
1.34259 -0.0377692 0
1.3499 -0.0227909 0
1.28337 -0.063475 0
1.28757 -0.0433726 0
1.29039 -0.0258393 0
1.39875 -0.0129445 0
1.40401 -0.0059993 0
1.40625 0 0
1.3499 -0.0227909 0
1.35325 -0.0117873 0
1.35352 0 0
1.29039 -0.0258393 0
1.29061 -0.0127163 0
1.28906 0 0
1.28337 -0.063475 0
1.28757 -0.0433726 0
1.29039 -0.0258393 0
1.22115 -0.0726881 0
1.22229 -0.0520008 0
1.2194 -0.0312116 0
1.15374 -0.0731206 0
1.14602 -0.051421 0
1.13969 -0.0309623 0
1.29039 -0.0258393 0
1.29061 -0.0127163 0
1.28906 0 0
1.2194 -0.0312116 0
1.21786 -0.0160258 0
1.21289 0 0
1.13969 -0.0309623 0
1.13215 -0.0154711 0
1.125 0 0
2.03694 -0.133558 0
1.97022 -0.1544 0
1.98072 -0.217117 0
1.95581 -0.0722668 0
1.92188 -0.127059 0
1.87639 -0.170887 0
1.81856 -0.0349564 0
1.76772 -0.0777465 0
1.73536 -0.117865 0
1.98072 -0.217117 0
1.9165 -0.254427 0
1.91512 -0.307456 0
1.87639 -0.170887 0
1.83855 -0.211256 0
1.795 -0.25549 0
1.73536 -0.117865 0
1.67888 -0.156276 0
1.6318 -0.193311 0
1.81856 -0.0349564 0
1.76772 -0.0777465 0
1.73536 -0.117865 0
1.63932 -0.0102749 0
1.60944 -0.0530812 0
1.57622 -0.0920264 0
1.48207 0.011018 0
1.45604 -0.0239039 0
1.42804 -0.0553904 0
1.73536 -0.117865 0
1.67888 -0.156276 0
1.6318 -0.193311 0
1.57622 -0.0920264 0
1.53621 -0.127612 0
1.49427 -0.159135 0
1.42804 -0.0553904 0
1.3888 -0.0831548 0
1.34536 -0.107122 0
1.91512 -0.307456 0
1.84632 -0.356228 0
1.82071 -0.40623 0
1.795 -0.25549 0
1.73083 -0.297012 0
1.65889 -0.330076 0
1.6318 -0.193311 0
1.56952 -0.23049 0
1.51405 -0.260686 0
1.82071 -0.40623 0
1.70455 -0.424782 0
1.63603 -0.452941 0
1.65889 -0.330076 0
1.58026 -0.354804 0
1.50297 -0.369908 0
1.51405 -0.260686 0
1.44504 -0.282669 0
1.37482 -0.296138 0
1.6318 -0.193311 0
1.56952 -0.23049 0
1.51405 -0.260686 0
1.49427 -0.159135 0
1.44343 -0.185645 0
1.38921 -0.207179 0
1.34536 -0.107122 0
1.2934 -0.128166 0
1.23787 -0.145295 0
1.51405 -0.260686 0
1.44504 -0.282669 0
1.37482 -0.296138 0
1.38921 -0.207179 0
1.32814 -0.22316 0
1.26546 -0.23233 0
1.23787 -0.145295 0
1.17804 -0.157809 0
1.1133 -0.164995 0
1.48207 0.011018 0
1.45604 -0.0239039 0
1.42804 -0.0553904 0
1.29326 0.0258088 0
1.27409 -0.00116835 0
1.24698 -0.0262443 0
1.04683 0.0354945 0
1.04224 0.0182274 0
1.02771 0.00142482 0
1.42804 -0.0553904 0
1.3888 -0.0831548 0
1.34536 -0.107122 0
1.24698 -0.0262443 0
1.21267 -0.0489609 0
1.17206 -0.0693821 0
1.02771 0.00142482 0
1.00481 -0.0140696 0
0.973227 -0.0283159 0
1.04683 0.0354945 0
1.04224 0.0182274 0
1.02771 0.00142482 0
0.64675 0.0125214 0
0.655836 0.00732275 0
0.657175 0.00203461 0
0 0 0
0 0 0
0 0 0
1.02771 0.00142482 0
1.00481 -0.0140696 0
0.973227 -0.0283159 0
0.657175 0.00203461 0
0.649328 -0.00288782 0
0.633927 -0.00749166 0
0 0 0
0 0 0
0 0 0
1.34536 -0.107122 0
1.2934 -0.128166 0
1.23787 -0.145295 0
1.17206 -0.0693821 0
1.12608 -0.0867196 0
1.07442 -0.100487 0
0.973227 -0.0283159 0
0.935485 -0.0405137 0
0.890875 -0.0505983 0
1.23787 -0.145295 0
1.17804 -0.157809 0
1.1133 -0.164995 0
1.07442 -0.100487 0
1.02067 -0.110292 0
0.962955 -0.116698 0
0.890875 -0.0505983 0
0.843651 -0.0579182 0
0.791117 -0.0625275 0
0.973227 -0.0283159 0
0.935485 -0.0405137 0
0.890875 -0.0505983 0
0.633927 -0.00749166 0
0.611317 -0.0114367 0
0.581551 -0.0150044 0
0 0 0
0 0 0
0 0 0
0.890875 -0.0505983 0
0.843651 -0.0579182 0
0.791117 -0.0625275 0
0.581551 -0.0150044 0
0.547896 -0.0178439 0
0.508343 -0.0197547 0
0 0 0
0 0 0
0 0 0
1.74835 0.591134 0
1.90801 0.55444 0
2.06909 0.496606 0
1.59828 0.515104 0
1.69567 0.481556 0
1.80105 0.436179 0
1.44295 0.415398 0
1.53021 0.399993 0
1.6191 0.364011 0
2.06909 0.496606 0
2.1599 0.371956 0
2.20964 0.238421 0
1.80105 0.436179 0
1.90119 0.373049 0
1.98009 0.283756 0
1.6191 0.364011 0
1.66682 0.307051 0
1.7341 0.242998 0
1.44295 0.415398 0
1.53021 0.399993 0
1.6191 0.364011 0
1.3031 0.342924 0
1.38886 0.328156 0
1.48071 0.303185 0
1.05705 0.239215 0
1.17344 0.245182 0
1.27039 0.236921 0
1.6191 0.364011 0
1.66682 0.307051 0
1.7341 0.242998 0
1.48071 0.303185 0
1.54226 0.261156 0
1.59672 0.211653 0
1.27039 0.236921 0
1.34333 0.213865 0
1.40468 0.182115 0
2.20964 0.238421 0
2.18746 0.101195 0
2.13789 -0.00792482 0
1.98009 0.283756 0
2.00508 0.185748 0
2.00424 0.0914473 0
1.7341 0.242998 0
1.76436 0.166025 0
1.80346 0.0958987 0
2.13789 -0.00792482 0
2.09134 -0.0853215 0
2.03694 -0.133558 0
2.00424 0.0914473 0
1.98419 0.00708976 0
1.95581 -0.0722668 0
1.80346 0.0958987 0
1.80995 0.0260095 0
1.81856 -0.0349564 0
1.7341 0.242998 0
1.76436 0.166025 0
1.80346 0.0958987 0
1.59672 0.211653 0
1.62393 0.155401 0
1.64258 0.0986431 0
1.40468 0.182115 0
1.44202 0.141063 0
1.47015 0.0984825 0
1.80346 0.0958987 0
1.80995 0.0260095 0
1.81856 -0.0349564 0
1.64258 0.0986431 0
1.6443 0.0430604 0
1.63932 -0.0102749 0
1.47015 0.0984825 0
1.47927 0.0540532 0
1.48207 0.011018 0
1.05705 0.239215 0
1.17344 0.245182 0
1.27039 0.236921 0
0.836712 0.15316 0
0.930405 0.154598 0
1.0294 0.155281 0
0.556073 0.0785094 0
0.640522 0.0833408 0
0.719887 0.0886037 0
1.27039 0.236921 0
1.34333 0.213865 0
1.40468 0.182115 0
1.0294 0.155281 0
1.11255 0.147175 0
1.18422 0.13335 0
0.719887 0.0886037 0
0.801679 0.0902414 0
0.874795 0.0880778 0
0.556073 0.0785094 0
0.640522 0.0833408 0
0.719887 0.0886037 0
0.304422 0.0174344 0
0.357306 0.0175673 0
0.394825 0.0181012 0
0 0 0
0 0 0
0 0 0
0.719887 0.0886037 0
0.801679 0.0902414 0
0.874795 0.0880778 0
0.394825 0.0181012 0
0.443981 0.0197571 0
0.488523 0.0211293 0
0 0 0
0 0 0
0 0 0
1.40468 0.182115 0
1.44202 0.141063 0
1.47015 0.0984825 0
1.18422 0.13335 0
1.23393 0.111473 0
1.26921 0.0855636 0
0.874795 0.0880778 0
0.939807 0.0799828 0
0.990035 0.0681232 0
1.47015 0.0984825 0
1.47927 0.0540532 0
1.48207 0.011018 0
1.26921 0.0855636 0
1.28745 0.0562333 0
1.29326 0.0258088 0
0.990035 0.0681232 0
1.02617 0.0529407 0
1.04683 0.0354945 0
0.874795 0.0880778 0
0.939807 0.0799828 0
0.990035 0.0681232 0
0.488523 0.0211293 0
0.535978 0.0214234 0
0.578546 0.0199005 0
0 0 0
0 0 0
0 0 0
0.990035 0.0681232 0
1.02617 0.0529407 0
1.04683 0.0354945 0
0.578546 0.0199005 0
0.616239 0.0167737 0
0.64675 0.0125214 0
0 0 0
0 0 0
0 0 0
0.83788 0.63395 0
0.773658 0.0828923 0
0.469168 -0.450834 0
1.15136 0.761964 0
0.997233 0.254532 0
0.74575 -0.189913 0
1.46534 0.954675 0
1.31271 0.45199 0
1.1053 0.0485521 0
0.469168 -0.450834 0
0.250815 -0.828413 0
-0.150865 -1.29221 0
0.74575 -0.189913 0
0.4925 -0.565434 0
0.0640879 -0.967078 0
1.1053 0.0485521 0
0.792915 -0.378152 0
0.428089 -0.724026 0
1.46534 0.954675 0
1.31271 0.45199 0
1.1053 0.0485521 0
1.71027 1.02599 0
1.52714 0.628516 0
1.43189 0.311853 0
2.02188 1.07457 0
1.79962 0.688518 0
1.67406 0.434359 0
1.1053 0.0485521 0
0.792915 -0.378152 0
0.428089 -0.724026 0
1.43189 0.311853 0
1.1348 -0.137253 0
0.903905 -0.394164 0
1.67406 0.434359 0
1.42178 0.0443469 0
1.2208 -0.177428 0
-0.150865 -1.29221 0
-0.202081 -1.55769 0
-0.16512 -1.3547 0
0.0640879 -0.967078 0
-0.191392 -1.41675 0
-0.290935 -1.25694 0
0.428089 -0.724026 0
0.0885668 -1.12041 0
-0.211383 -1.06949 0
-0.16512 -1.3547 0
-0.360078 -1.20041 0
-0.43207 -0.906466 0
-0.290935 -1.25694 0
-0.535781 -1.03334 0
-0.638691 -0.780195 0
-0.211383 -1.06949 0
-0.479609 -0.88205 0
-0.609412 -0.702447 0
0.428089 -0.724026 0
0.0885668 -1.12041 0
-0.211383 -1.06949 0
0.903905 -0.394164 0
0.515647 -0.710394 0
0.162135 -0.813491 0
1.2208 -0.177428 0
0.929933 -0.43619 0
0.610889 -0.580248 0
-0.211383 -1.06949 0
-0.479609 -0.88205 0
-0.609412 -0.702447 0
0.162135 -0.813491 0
-0.11407 -0.782391 0
-0.238755 -0.623093 0
0.610889 -0.580248 0
0.399574 -0.586189 0
0.1384 -0.495275 0
2.02188 1.07457 0
1.79962 0.688518 0
1.67406 0.434359 0
2.01125 1.02482 0
2.0474 0.815796 0
1.95685 0.568953 0
1.95078 0.861613 0
2.0504 0.771656 0
2.09868 0.641969 0
1.67406 0.434359 0
1.42178 0.0443469 0
1.2208 -0.177428 0
1.95685 0.568953 0
1.78019 0.247569 0
1.53299 -0.0226417 0
2.09868 0.641969 0
2.04335 0.431143 0
1.89708 0.222513 0
1.95078 0.861613 0
2.0504 0.771656 0
2.09868 0.641969 0
1.90266 0.760256 0
2.03089 0.700708 0
2.0998 0.595356 0
1.74835 0.591134 0
1.90801 0.55444 0
2.06909 0.496606 0
2.09868 0.641969 0
2.04335 0.431143 0
1.89708 0.222513 0
2.0998 0.595356 0
2.11274 0.436712 0
2.06825 0.268497 0
2.06909 0.496606 0
2.1599 0.371956 0
2.20964 0.238421 0
1.2208 -0.177428 0
0.929933 -0.43619 0
0.610889 -0.580248 0
1.53299 -0.0226417 0
1.29015 -0.232715 0
0.967205 -0.379504 0
1.89708 0.222513 0
1.6599 0.0482766 0
1.37936 -0.0629305 0
0.610889 -0.580248 0
0.399574 -0.586189 0
0.1384 -0.495275 0
0.967205 -0.379504 0
0.752706 -0.394212 0
0.444237 -0.359403 0
1.37936 -0.0629305 0
1.14521 -0.101457 0
0.911882 -0.0819215 0
1.89708 0.222513 0
1.6599 0.0482766 0
1.37936 -0.0629305 0
2.06825 0.268497 0
1.94786 0.104083 0
1.79718 -0.0183997 0
2.20964 0.238421 0
2.18746 0.101195 0
2.13789 -0.00792482 0
1.37936 -0.0629305 0
1.14521 -0.101457 0
0.911882 -0.0819215 0
1.79718 -0.0183997 0
1.68836 -0.0996738 0
1.59312 -0.135706 0
2.13789 -0.00792482 0
2.09134 -0.0853215 0
2.03694 -0.133558 0
0.98169 0.183955 0
1.05106 0.0226315 0
1.05263 -0.0884256 0
0.72357 0.166787 0
0.884825 -0.0115485 0
0.953104 -0.154709 0
0.427467 0.0330255 0
0.576754 -0.162335 0
0.734742 -0.241579 0
1.05263 -0.0884256 0
1.20443 -0.244669 0
1.27787 -0.354373 0
0.953104 -0.154709 0
1.07381 -0.325841 0
1.14413 -0.477006 0
0.734742 -0.241579 0
0.879304 -0.435312 0
0.99427 -0.614703 0
0.427467 0.0330255 0
0.576754 -0.162335 0
0.734742 -0.241579 0
0.326541 0.0725144 0
0.364729 -0.292402 0
0.557597 -0.488626 0
0.264232 0.099796 0
0.220926 -0.28814 0
0.350466 -0.629724 0
0.734742 -0.241579 0
0.879304 -0.435312 0
0.99427 -0.614703 0
0.557597 -0.488626 0
0.746721 -0.607483 0
0.908496 -0.820797 0
0.350466 -0.629724 0
0.616136 -0.778049 0
0.77336 -0.961684 0
1.27787 -0.354373 0
1.45266 -0.455818 0
1.56606 -0.491584 0
1.14413 -0.477006 0
1.32881 -0.608057 0
1.47361 -0.659964 0
0.99427 -0.614703 0
1.246 -0.774577 0
1.53963 -0.849294 0
1.56606 -0.491584 0
1.6917 -0.487159 0
1.79566 -0.445838 0
1.47361 -0.659964 0
1.69255 -0.685235 0
1.89879 -0.660823 0
1.53963 -0.849294 0
1.82515 -0.867326 0
2.05738 -0.791934 0
0.99427 -0.614703 0
1.246 -0.774577 0
1.53963 -0.849294 0
0.908496 -0.820797 0
1.21663 -0.993157 0
1.48985 -1.07714 0
0.77336 -0.961684 0
1.05204 -1.16634 0
1.24769 -1.26477 0
1.53963 -0.849294 0
1.82515 -0.867326 0
2.05738 -0.791934 0
1.48985 -1.07714 0
1.67501 -1.10547 0
1.76473 -0.918071 0
1.24769 -1.26477 0
1.33278 -1.24914 0
1.31161 -0.916575 0
0.264232 0.099796 0
0.220926 -0.28814 0
0.350466 -0.629724 0
0.291591 0.136448 0
0.200059 -0.386801 0
0.170757 -0.831942 0
0.44803 0.363635 0
0.278406 -0.242353 0
0.123755 -0.813989 0
0.350466 -0.629724 0
0.616136 -0.778049 0
0.77336 -0.961684 0
0.170757 -0.831942 0
0.388257 -1.03824 0
0.520607 -1.20559 0
0.123755 -0.813989 0
0.2012 -1.16969 0
0.235636 -1.34486 0
0.44803 0.363635 0
0.278406 -0.242353 0
0.123755 -0.813989 0
0.619714 0.453967 0
0.464044 -0.147306 0
0.224643 -0.672209 0
0.83788 0.63395 0
0.773658 0.0828923 0
0.469168 -0.450834 0
0.123755 -0.813989 0
0.2012 -1.16969 0
0.235636 -1.34486 0
0.224643 -0.672209 0
0.129534 -1.09319 0
-0.0541811 -1.41974 0
0.469168 -0.450834 0
0.250815 -0.828413 0
-0.150865 -1.29221 0
0.77336 -0.961684 0
1.05204 -1.16634 0
1.24769 -1.26477 0
0.520607 -1.20559 0
0.745503 -1.36151 0
0.868751 -1.39812 0
0.235636 -1.34486 0
0.398749 -1.46342 0
0.493892 -1.46869 0
1.24769 -1.26477 0
1.33278 -1.24914 0
1.31161 -0.916575 0
0.868751 -1.39812 0
0.858942 -1.25579 0
0.788679 -0.768501 0
0.493892 -1.46869 0
0.386878 -1.25532 0
0.31807 -0.762225 0
0.235636 -1.34486 0
0.398749 -1.46342 0
0.493892 -1.46869 0
-0.0541811 -1.41974 0
0.0531157 -1.54109 0
0.12423 -1.40932 0
-0.150865 -1.29221 0
-0.202081 -1.55769 0
-0.16512 -1.3547 0
0.493892 -1.46869 0
0.386878 -1.25532 0
0.31807 -0.762225 0
0.12423 -1.40932 0
-0.0386768 -1.22812 0
-0.103151 -0.780019 0
-0.16512 -1.3547 0
-0.360078 -1.20041 0
-0.43207 -0.906466 0
0 0 0
0 0 0
0 0 0
0.288626 0.00607173 0
0.276188 0.001384 0
0.283781 -0.00339442 0
0.633669 0.0252284 0
0.628999 0.0144424 0
0.629697 0.002638 0
0 0 0
0 0 0
0 0 0
0.283781 -0.00339442 0
0.288903 -0.0077613 0
0.308433 -0.0123123 0
0.629697 0.002638 0
0.639554 -0.0125849 0
0.659814 -0.0276895 0