# vtk DataFile Version 3.0
#This file was generated by the deal.II library on 2025/1/8 at 8:59:39
ASCII
DATASET UNSTRUCTURED_GRID

POINTS 8640 double
1.1 1.1 0
0.9625 1.09063 0
0.825 1.08125 0
1.0875 0.9625 0
0.951563 0.954297 0
0.815625 0.946094 0
1.075 0.825 0
0.940625 0.817969 0
0.80625 0.810937 0
0.825 1.08125 0
0.6875 1.07187 0
0.55 1.0625 0
0.815625 0.946094 0
0.679688 0.937891 0
0.54375 0.929688 0
0.80625 0.810937 0
0.671875 0.803906 0
0.5375 0.796875 0
1.075 0.825 0
0.940625 0.817969 0
0.80625 0.810937 0
1.0625 0.6875 0
0.929688 0.681641 0
0.796875 0.675781 0
1.05 0.55 0
0.91875 0.545313 0
0.7875 0.540625 0
0.80625 0.810937 0
0.671875 0.803906 0
0.5375 0.796875 0
0.796875 0.675781 0
0.664062 0.669922 0
0.53125 0.664062 0
0.7875 0.540625 0
0.65625 0.535937 0
0.525 0.53125 0
0.55 1.0625 0
0.4125 1.05313 0
0.275 1.04375 0
0.54375 0.929688 0
0.407813 0.921484 0
0.271875 0.913281 0
0.5375 0.796875 0
0.403125 0.789844 0
0.26875 0.782813 0
0.275 1.04375 0
0.1375 1.03437 0
0 1.025 0
0.271875 0.913281 0
0.135938 0.905078 0
0 0.896875 0
0.26875 0.782813 0
0.134375 0.775781 0
0 0.76875 0
0.5375 0.796875 0
0.403125 0.789844 0
0.26875 0.782813 0
0.53125 0.664062 0
0.398438 0.658203 0
0.265625 0.652344 0
0.525 0.53125 0
0.39375 0.526563 0
0.2625 0.521875 0
0.26875 0.782813 0
0.134375 0.775781 0
0 0.76875 0
0.265625 0.652344 0
0.132812 0.646484 0
0 0.640625 0
0.2625 0.521875 0
0.13125 0.517187 0
0 0.5125 0
1.05 0.55 0
0.91875 0.545313 0
0.7875 0.540625 0
1.0375 0.4125 0
0.907812 0.408984 0
0.778125 0.405469 0
1.025 0.275 0
0.896875 0.272656 0
0.76875 0.270313 0
0.7875 0.540625 0
0.65625 0.535937 0
0.525 0.53125 0
0.778125 0.405469 0
0.648438 0.401953 0
0.51875 0.398438 0
0.76875 0.270313 0
0.640625 0.267969 0
0.5125 0.265625 0
1.025 0.275 0
0.896875 0.272656 0
0.76875 0.270313 0
1.0125 0.1375 0
0.885937 0.136328 0
0.759375 0.135156 0
1 0 0
0.875 0 0
0.75 0 0
0.76875 0.270313 0
0.640625 0.267969 0
0.5125 0.265625 0
0.759375 0.135156 0
0.632812 0.133984 0
0.50625 0.132812 0
0.75 0 0
0.625 0 0
0.5 0 0
0.525 0.53125 0
0.39375 0.526563 0
0.2625 0.521875 0
0.51875 0.398438 0
0.389062 0.394922 0
0.259375 0.391406 0
0.5125 0.265625 0
0.384375 0.263281 0
0.25625 0.260937 0
0.2625 0.521875 0
0.13125 0.517187 0
0 0.5125 0
0.259375 0.391406 0
0.129688 0.387891 0
0 0.384375 0
0.25625 0.260937 0
0.128125 0.258594 0
0 0.25625 0
0.5125 0.265625 0
0.384375 0.263281 0
0.25625 0.260937 0
0.50625 0.132812 0
0.379687 0.131641 0
0.253125 0.130469 0
0.5 0 0
0.375 0 0
0.25 0 0
0.25625 0.260937 0
0.128125 0.258594 0
0 0.25625 0
0.253125 0.130469 0
0.126562 0.129297 0
0 0.128125 0
0.25 0 0
0.125 0 0
0 0 0
2 1 0
1.8875 1.0125 0
1.775 1.025 0
2 0.875 0
1.88594 0.885938 0
1.77188 0.896875 0
2 0.75 0
1.88437 0.759375 0
1.76875 0.76875 0
1.775 1.025 0
1.6625 1.0375 0
1.55 1.05 0
1.77188 0.896875 0
1.65781 0.907813 0
1.54375 0.91875 0
1.76875 0.76875 0
1.65313 0.778125 0
1.5375 0.7875 0
2 0.75 0
1.88437 0.759375 0
1.76875 0.76875 0
2 0.625 0
1.88281 0.632812 0
1.76562 0.640625 0
2 0.5 0
1.88125 0.50625 0
1.7625 0.5125 0
1.76875 0.76875 0
1.65313 0.778125 0
1.5375 0.7875 0
1.76562 0.640625 0
1.64844 0.648438 0
1.53125 0.65625 0
1.7625 0.5125 0
1.64375 0.51875 0
1.525 0.525 0
1.55 1.05 0
1.4375 1.0625 0
1.325 1.075 0
1.54375 0.91875 0
1.42969 0.929688 0
1.31563 0.940625 0
1.5375 0.7875 0
1.42188 0.796875 0
1.30625 0.80625 0
1.325 1.075 0
1.2125 1.0875 0
1.1 1.1 0
1.31563 0.940625 0
1.20156 0.951563 0
1.0875 0.9625 0
1.30625 0.80625 0
1.19063 0.815625 0
1.075 0.825 0
1.5375 0.7875 0
1.42188 0.796875 0
1.30625 0.80625 0
1.53125 0.65625 0
1.41406 0.664062 0
1.29688 0.671875 0
1.525 0.525 0
1.40625 0.53125 0
1.2875 0.5375 0
1.30625 0.80625 0
1.19063 0.815625 0
1.075 0.825 0
1.29688 0.671875 0
1.17969 0.679688 0
1.0625 0.6875 0
1.2875 0.5375 0
1.16875 0.54375 0
1.05 0.55 0
2 0.5 0
1.88125 0.50625 0
1.7625 0.5125 0
2 0.375 0
1.87969 0.379687 0
1.75938 0.384375 0
2 0.25 0
1.87813 0.253125 0
1.75625 0.25625 0
1.7625 0.5125 0
1.64375 0.51875 0
1.525 0.525 0
1.75938 0.384375 0
1.63906 0.389063 0
1.51875 0.39375 0
1.75625 0.25625 0
1.63438 0.259375 0
1.5125 0.2625 0
2 0.25 0
1.87813 0.253125 0
1.75625 0.25625 0
2 0.125 0
1.87656 0.126562 0
1.75313 0.128125 0
2 0 0
1.875 0 0
1.75 0 0
1.75625 0.25625 0
1.63438 0.259375 0
1.5125 0.2625 0
1.75313 0.128125 0
1.62969 0.129688 0
1.50625 0.13125 0
1.75 0 0
1.625 0 0
1.5 0 0
1.525 0.525 0
1.40625 0.53125 0
1.2875 0.5375 0
1.51875 0.39375 0
1.39844 0.398438 0
1.27813 0.403125 0
1.5125 0.2625 0
1.39062 0.265625 0
1.26875 0.26875 0
1.2875 0.5375 0
1.16875 0.54375 0
1.05 0.55 0
1.27813 0.403125 0
1.15781 0.407813 0
1.0375 0.4125 0
1.26875 0.26875 0
1.14688 0.271875 0
1.025 0.275 0
1.5125 0.2625 0
1.39062 0.265625 0
1.26875 0.26875 0
1.50625 0.13125 0
1.38281 0.132812 0
1.25937 0.134375 0
1.5 0 0
1.375 0 0
1.25 0 0
1.26875 0.26875 0
1.14688 0.271875 0
1.025 0.275 0
1.25937 0.134375 0
1.13594 0.135938 0
1.0125 0.1375 0
1.25 0 0
1.125 0 0
1 0 0
1 2 0
0.875 2.00625 0
0.75 2.0125 0
1.0125 1.8875 0
0.885938 1.8918 0
0.759375 1.89609 0
1.025 1.775 0
0.896875 1.77734 0
0.76875 1.77969 0
0.75 2.0125 0
0.625 2.01875 0
0.5 2.025 0
0.759375 1.89609 0
0.632812 1.90039 0
0.50625 1.90469 0
0.76875 1.77969 0
0.640625 1.78203 0
0.5125 1.78437 0
1.025 1.775 0
0.896875 1.77734 0
0.76875 1.77969 0
1.0375 1.6625 0
0.907813 1.66289 0
0.778125 1.66328 0
1.05 1.55 0
0.91875 1.54844 0
0.7875 1.54688 0
0.76875 1.77969 0
0.640625 1.78203 0
0.5125 1.78437 0
0.778125 1.66328 0
0.648438 1.66367 0
0.51875 1.66406 0
0.7875 1.54688 0
0.65625 1.54531 0
0.525 1.54375 0
0.5 2.025 0
0.375 2.03125 0
0.25 2.0375 0
0.50625 1.90469 0
0.379687 1.90898 0
0.253125 1.91328 0
0.5125 1.78437 0
0.384375 1.78672 0
0.25625 1.78906 0
0.25 2.0375 0
0.125 2.04375 0
0 2.05 0
0.253125 1.91328 0
0.126562 1.91758 0
0 1.92187 0
0.25625 1.78906 0
0.128125 1.79141 0
0 1.79375 0
0.5125 1.78437 0
0.384375 1.78672 0
0.25625 1.78906 0
0.51875 1.66406 0
0.389062 1.66445 0
0.259375 1.66484 0
0.525 1.54375 0
0.39375 1.54219 0
0.2625 1.54062 0
0.25625 1.78906 0
0.128125 1.79141 0
0 1.79375 0
0.259375 1.66484 0
0.129688 1.66523 0
0 1.66562 0
0.2625 1.54062 0
0.13125 1.53906 0
0 1.5375 0
1.05 1.55 0
0.91875 1.54844 0
0.7875 1.54688 0
1.0625 1.4375 0
0.929688 1.43398 0
0.796875 1.43047 0
1.075 1.325 0
0.940625 1.31953 0
0.80625 1.31406 0
0.7875 1.54688 0
0.65625 1.54531 0
0.525 1.54375 0
0.796875 1.43047 0
0.664062 1.42695 0
0.53125 1.42344 0
0.80625 1.31406 0
0.671875 1.30859 0
0.5375 1.30312 0
1.075 1.325 0
0.940625 1.31953 0
0.80625 1.31406 0
1.0875 1.2125 0
0.951563 1.20508 0
0.815625 1.19766 0
1.1 1.1 0
0.9625 1.09063 0
0.825 1.08125 0
0.80625 1.31406 0
0.671875 1.30859 0
0.5375 1.30312 0
0.815625 1.19766 0
0.679688 1.19023 0
0.54375 1.18281 0
0.825 1.08125 0
0.6875 1.07187 0
0.55 1.0625 0
0.525 1.54375 0
0.39375 1.54219 0
0.2625 1.54062 0
0.53125 1.42344 0
0.398438 1.41992 0
0.265625 1.41641 0
0.5375 1.30312 0
0.403125 1.29766 0
0.26875 1.29219 0
0.2625 1.54062 0
0.13125 1.53906 0
0 1.5375 0
0.265625 1.41641 0
0.132812 1.41289 0
0 1.40937 0
0.26875 1.29219 0
0.134375 1.28672 0
0 1.28125 0
0.5375 1.30312 0
0.403125 1.29766 0
0.26875 1.29219 0
0.54375 1.18281 0
0.407813 1.17539 0
0.271875 1.16797 0
0.55 1.0625 0
0.4125 1.05313 0
0.275 1.04375 0
0.26875 1.29219 0
0.134375 1.28672 0
0 1.28125 0
0.271875 1.16797 0
0.135938 1.16055 0
0 1.15312 0
0.275 1.04375 0
0.1375 1.03437 0
0 1.025 0
2.9 1.1 0
2.7875 1.0875 0
2.675 1.075 0
2.9125 0.9625 0
2.79844 0.951563 0
2.68438 0.940625 0
2.925 0.825 0
2.80938 0.815625 0
2.69375 0.80625 0
2.675 1.075 0
2.5625 1.0625 0
2.45 1.05 0
2.68438 0.940625 0
2.57031 0.929688 0
2.45625 0.91875 0
2.69375 0.80625 0
2.57812 0.796875 0
2.4625 0.7875 0
2.925 0.825 0
2.80938 0.815625 0
2.69375 0.80625 0
2.9375 0.6875 0
2.82031 0.679688 0
2.70312 0.671875 0
2.95 0.55 0
2.83125 0.54375 0
2.7125 0.5375 0
2.69375 0.80625 0
2.57812 0.796875 0
2.4625 0.7875 0
2.70312 0.671875 0
2.58594 0.664062 0
2.46875 0.65625 0
2.7125 0.5375 0
2.59375 0.53125 0
2.475 0.525 0
2.45 1.05 0
2.3375 1.0375 0
2.225 1.025 0
2.45625 0.91875 0
2.34219 0.907813 0
2.22813 0.896875 0
2.4625 0.7875 0
2.34688 0.778125 0
2.23125 0.76875 0
2.225 1.025 0
2.1125 1.0125 0
2 1 0
2.22813 0.896875 0
2.11406 0.885938 0
2 0.875 0
2.23125 0.76875 0
2.11563 0.759375 0
2 0.75 0
2.4625 0.7875 0
2.34688 0.778125 0
2.23125 0.76875 0
2.46875 0.65625 0
2.35156 0.648438 0
2.23438 0.640625 0
2.475 0.525 0
2.35625 0.51875 0
2.2375 0.5125 0
2.23125 0.76875 0
2.11563 0.759375 0
2 0.75 0
2.23438 0.640625 0
2.11719 0.632812 0
2 0.625 0
2.2375 0.5125 0
2.11875 0.50625 0
2 0.5 0
2.95 0.55 0
2.83125 0.54375 0
2.7125 0.5375 0
2.9625 0.4125 0
2.84219 0.407813 0
2.72188 0.403125 0
2.975 0.275 0
2.85313 0.271875 0
2.73125 0.26875 0
2.7125 0.5375 0
2.59375 0.53125 0
2.475 0.525 0
2.72188 0.403125 0
2.60156 0.398438 0
2.48125 0.39375 0
2.73125 0.26875 0
2.60938 0.265625 0
2.4875 0.2625 0
2.975 0.275 0
2.85313 0.271875 0
2.73125 0.26875 0
2.9875 0.1375 0
2.86406 0.135938 0
2.74063 0.134375 0
3 0 0
2.875 0 0
2.75 0 0
2.73125 0.26875 0
2.60938 0.265625 0
2.4875 0.2625 0
2.74063 0.134375 0
2.61719 0.132812 0
2.49375 0.13125 0
2.75 0 0
2.625 0 0
2.5 0 0
2.475 0.525 0
2.35625 0.51875 0
2.2375 0.5125 0
2.48125 0.39375 0
2.36094 0.389063 0
2.24062 0.384375 0
2.4875 0.2625 0
2.36562 0.259375 0
2.24375 0.25625 0
2.2375 0.5125 0
2.11875 0.50625 0
2 0.5 0
2.24062 0.384375 0
2.12031 0.379687 0
2 0.375 0
2.24375 0.25625 0
2.12188 0.253125 0
2 0.25 0
2.4875 0.2625 0
2.36562 0.259375 0
2.24375 0.25625 0
2.49375 0.13125 0
2.37031 0.129688 0
2.24688 0.128125 0
2.5 0 0
2.375 0 0
2.25 0 0
2.24375 0.25625 0
2.12188 0.253125 0
2 0.25 0
2.24688 0.128125 0
2.12344 0.126562 0
2 0.125 0
2.25 0 0
2.125 0 0
2 0 0
4 1 0
3.8625 1.0125 0
3.725 1.025 0
4 0.875 0
3.86406 0.885938 0
3.72813 0.896875 0
4 0.75 0
3.86563 0.759375 0
3.73125 0.76875 0
3.725 1.025 0
3.5875 1.0375 0
3.45 1.05 0
3.72813 0.896875 0
3.59219 0.907813 0
3.45625 0.91875 0
3.73125 0.76875 0
3.59688 0.778125 0
3.4625 0.7875 0
4 0.75 0
3.86563 0.759375 0
3.73125 0.76875 0
4 0.625 0
3.86719 0.632812 0
[...]
POINT_DATA 8640
VECTORS v double
1.214 -0.250884 0
1.18999 -0.198174 0
1.17666 -0.148973 0
1.1394 -0.224713 0
1.1106 -0.179389 0
1.09222 -0.13957 0
1.05038 -0.196115 0
1.02126 -0.158164 0
0.994529 -0.123406 0
1.17666 -0.148973 0
1.16344 -0.112602 0
1.15637 -0.0793223 0
1.09222 -0.13957 0
1.07388 -0.105685 0
1.06336 -0.0770114 0
0.994529 -0.123406 0
0.974491 -0.0938296 0
0.95728 -0.0682903 0
1.05038 -0.196115 0
1.02126 -0.158164 0
0.994529 -0.123406 0
0.938557 -0.155286 0
0.90452 -0.126594 0
0.876008 -0.100216 0
0.804884 -0.122019 0
0.771625 -0.100377 0
0.743014 -0.0798415 0
0.994529 -0.123406 0
0.974491 -0.0938296 0
0.95728 -0.0682903 0
0.876008 -0.100216 0
0.852809 -0.0768679 0
0.834381 -0.0566536 0
0.743014 -0.0798415 0
0.719524 -0.0614836 0
0.700577 -0.0453727 0
1.15637 -0.0793223 0
1.14661 -0.0554878 0
1.14011 -0.0327836 0
1.06336 -0.0770114 0
1.04987 -0.0533843 0
1.04226 -0.0329236 0
0.95728 -0.0682903 0
0.943037 -0.0469743 0
0.93191 -0.0288562 0
1.14011 -0.0327836 0
1.13189 -0.0161818 0
1.125 0 0
1.04226 -0.0329236 0
1.03207 -0.0159639 0
1.02539 0 0
0.93191 -0.0288562 0
0.921823 -0.0136153 0
0.914062 0 0
0.95728 -0.0682903 0
0.943037 -0.0469743 0
0.93191 -0.0288562 0
0.834381 -0.0566536 0
0.818915 -0.0391641 0
0.807583 -0.0243142 0
0.700577 -0.0453727 0
0.68472 -0.0315101 0
0.672673 -0.019615 0
0.93191 -0.0288562 0
0.921823 -0.0136153 0
0.914062 0 0
0.807583 -0.0243142 0
0.797863 -0.0116412 0
0.791016 0 0
0.672673 -0.019615 0
0.662923 -0.00944824 0
0.65625 0 0
0.804884 -0.122019 0
0.771625 -0.100377 0
0.743014 -0.0798415 0
0.65647 -0.08267 0
0.622353 -0.0676809 0
0.593433 -0.0536346 0
0.486377 -0.049133 0
0.453876 -0.0406283 0
0.426769 -0.0326667 0
0.743014 -0.0798415 0
0.719524 -0.0614836 0
0.700577 -0.0453727 0
0.593433 -0.0536346 0
0.56947 -0.0411058 0
0.550484 -0.0300133 0
0.426769 -0.0326667 0
0.404164 -0.0253475 0
0.386734 -0.0188919 0
0.486377 -0.049133 0
0.453876 -0.0406283 0
0.426769 -0.0326667 0
0.276744 -0.0144291 0
0.252172 -0.0115505 0
0.233003 -0.00900482 0
0 0 0
0 0 0
0 0 0
0.426769 -0.0326667 0
0.404164 -0.0253475 0
0.386734 -0.0188919 0
0.233003 -0.00900482 0
0.216622 -0.00668271 0
0.204678 -0.00479569 0
0 0 0
0 0 0
0 0 0
0.700577 -0.0453727 0
0.68472 -0.0315101 0
0.672673 -0.019615 0
0.550484 -0.0300133 0
0.535087 -0.0205456 0
0.523746 -0.0125504 0
0.386734 -0.0188919 0
0.372845 -0.0133408 0
0.363117 -0.00862358 0
0.672673 -0.019615 0
0.662923 -0.00944824 0
0.65625 0 0
0.523746 -0.0125504 0
0.515198 -0.00577821 0
0.509766 0 0
0.363117 -0.00862358 0
0.355924 -0.00443271 0
0.351562 0 0
0.386734 -0.0188919 0
0.372845 -0.0133408 0
0.363117 -0.00862358 0
0.204678 -0.00479569 0
0.195164 -0.00321015 0
0.188685 -0.00189508 0
0 0 0
0 0 0
0 0 0
0.363117 -0.00862358 0
0.355924 -0.00443271 0
0.351562 0 0
0.188685 -0.00189508 0
0.184086 -0.000728727 0
0.181641 0 0
0 0 0
0 0 0
0 0 0
1.67191 -0.459852 0
1.57078 -0.483344 0
1.51162 -0.484903 0
1.52959 -0.374774 0
1.4603 -0.390637 0
1.39109 -0.394023 0
1.39814 -0.298758 0
1.34536 -0.318763 0
1.28624 -0.326763 0
1.51162 -0.484903 0
1.41896 -0.46442 0
1.36458 -0.43176 0
1.39109 -0.394023 0
1.32708 -0.384352 0
1.26883 -0.364127 0
1.28624 -0.326763 0
1.23713 -0.323122 0
1.18416 -0.308603 0
1.39814 -0.298758 0
1.34536 -0.318763 0
1.28624 -0.326763 0
1.28738 -0.232997 0
1.23643 -0.244944 0
1.18133 -0.248925 0
1.13329 -0.163985 0
1.08414 -0.175146 0
1.03161 -0.180799 0
1.28624 -0.326763 0
1.23713 -0.323122 0
1.18416 -0.308603 0
1.18133 -0.248925 0
1.1302 -0.244974 0
1.07846 -0.234611 0
1.03161 -0.180799 0
0.984663 -0.181336 0
0.937491 -0.176814 0
1.36458 -0.43176 0
1.29712 -0.390481 0
1.26517 -0.343918 0
1.26883 -0.364127 0
1.22262 -0.334762 0
1.18455 -0.299977 0
1.18416 -0.308603 0
1.14387 -0.286147 0
1.10337 -0.257816 0
1.26517 -0.343918 0
1.22694 -0.297947 0
1.214 -0.250884 0
1.18455 -0.299977 0
1.15739 -0.262425 0
1.1394 -0.224713 0
1.10337 -0.257816 0
1.0761 -0.227522 0
1.05038 -0.196115 0
1.18416 -0.308603 0
1.14387 -0.286147 0
1.10337 -0.257816 0
1.07846 -0.234611 0
1.03559 -0.219367 0
0.995317 -0.199823 0
0.937491 -0.176814 0
0.898305 -0.167798 0
0.861121 -0.154786 0
1.10337 -0.257816 0
1.0761 -0.227522 0
1.05038 -0.196115 0
0.995317 -0.199823 0
0.964796 -0.178198 0
0.938557 -0.155286 0
0.861121 -0.154786 0
0.831332 -0.139251 0
0.804884 -0.122019 0
1.13329 -0.163985 0
1.08414 -0.175146 0
1.03161 -0.180799 0
0.981566 -0.11556 0
0.936596 -0.123555 0
0.887849 -0.127496 0
0.808874 -0.0611094 0
0.765771 -0.0670787 0
0.718398 -0.0704768 0
1.03161 -0.180799 0
0.984663 -0.181336 0
0.937491 -0.176814 0
0.887849 -0.127496 0
0.842688 -0.127143 0
0.796469 -0.12287 0
0.718398 -0.0704768 0
0.673568 -0.0712238 0
0.627787 -0.0696053 0
0.808874 -0.0611094 0
0.765771 -0.0670787 0
0.718398 -0.0704768 0
0.521945 -0.0193525 0
0.491978 -0.0215755 0
0.457012 -0.0227107 0
0 0 0
0 0 0
0 0 0
0.718398 -0.0704768 0
0.673568 -0.0712238 0
0.627787 -0.0696053 0
0.457012 -0.0227107 0
0.423245 -0.0230408 0
0.388098 -0.0222703 0
0 0 0
0 0 0
0 0 0
0.937491 -0.176814 0
0.898305 -0.167798 0
0.861121 -0.154786 0
0.796469 -0.12287 0
0.756132 -0.115541 0
0.717591 -0.105808 0
0.627787 -0.0696053 0
0.587215 -0.0663151 0
0.54867 -0.061552 0
0.861121 -0.154786 0
0.831332 -0.139251 0
0.804884 -0.122019 0
0.717591 -0.105808 0
0.685085 -0.0948412 0
0.65647 -0.08267 0
0.54867 -0.061552 0
0.515557 -0.0558162 0
0.486377 -0.049133 0
0.627787 -0.0696053 0
0.587215 -0.0663151 0
0.54867 -0.061552 0
0.388098 -0.0222703 0
0.356076 -0.0209867 0
0.326133 -0.0190243 0
0 0 0
0 0 0
0 0 0
0.54867 -0.061552 0
0.515557 -0.0558162 0
0.486377 -0.049133 0
0.326133 -0.0190243 0
0.299313 -0.0168506 0
0.276744 -0.0144291 0
0 0 0
0 0 0
0 0 0
1.25121 0.0436255 0
1.32329 0.0466832 0
1.37994 0.0464658 0
1.25711 -0.0313247 0
1.32246 -0.0104686 0
1.37791 0.00494799 0
1.244 -0.0972443 0
1.30572 -0.061328 0
1.35959 -0.0345258 0
1.37994 0.0464658 0
1.42099 0.0440538 0
1.45115 0.0389538 0
1.37791 0.00494799 0
1.41617 0.0125987 0
1.44675 0.0160952 0
1.35959 -0.0345258 0
1.39645 -0.0177667 0
1.42715 -0.00649641 0
1.244 -0.0972443 0
1.30572 -0.061328 0
1.35959 -0.0345258 0
1.25744 -0.170793 0
1.30661 -0.117339 0
1.35055 -0.0768946 0
1.26567 -0.206065 0
1.29866 -0.147789 0
1.32997 -0.101997 0
1.35959 -0.0345258 0
1.39645 -0.0177667 0
1.42715 -0.00649641 0
1.35055 -0.0768946 0
1.38067 -0.050418 0
1.40679 -0.0307554 0
1.32997 -0.101997 0
1.35284 -0.070875 0
1.37384 -0.0459374 0
1.45115 0.0389538 0
1.47358 0.0320527 0
1.48732 0.0229889 0
1.44675 0.0160952 0
1.46787 0.0154747 0
1.48229 0.0125704 0
1.42715 -0.00649641 0
1.44834 -0.000403969 0
1.46406 0.00242321 0
1.48732 0.0229889 0
1.49753 0.0123774 0
1.5 0 0
1.48229 0.0125704 0
1.49118 0.00750243 0
1.49414 0 0
1.46406 0.00242321 0
1.47299 0.00236923 0
1.47656 0 0
1.42715 -0.00649641 0
1.44834 -0.000403969 0
1.46406 0.00242321 0
1.40679 -0.0307554 0
1.42418 -0.0181851 0
1.43783 -0.00928242 0
1.37384 -0.0459374 0
1.38759 -0.0290224 0
1.39907 -0.0159167 0
1.46406 0.00242321 0
1.47299 0.00236923 0
1.47656 0 0
1.43783 -0.00928242 0
1.4444 -0.00376264 0
1.44727 0 0
1.39907 -0.0159167 0
1.40404 -0.00713844 0
1.40625 0 0
1.26567 -0.206065 0
1.29866 -0.147789 0
1.32997 -0.101997 0
1.26224 -0.246178 0
1.2848 -0.183124 0
1.30324 -0.131263 0
1.26241 -0.256621 0
1.26799 -0.19443 0
1.27215 -0.141994 0
1.32997 -0.101997 0
1.35284 -0.070875 0
1.37384 -0.0459374 0
1.30324 -0.131263 0
1.3202 -0.0954526 0
1.33372 -0.0645236 0
1.27215 -0.141994 0
1.27941 -0.104142 0
1.2851 -0.071275 0
1.26241 -0.256621 0
1.26799 -0.19443 0
1.27215 -0.141994 0
1.23581 -0.259579 0
1.23362 -0.204712 0
1.22405 -0.151552 0
1.214 -0.250884 0
1.18999 -0.198174 0
1.17666 -0.148973 0
1.27215 -0.141994 0
1.27941 -0.104142 0
1.2851 -0.071275 0
1.22405 -0.151552 0
1.22604 -0.114572 0
1.22259 -0.0796042 0
1.17666 -0.148973 0
1.16344 -0.112602 0
1.15637 -0.0793223 0
1.37384 -0.0459374 0
1.38759 -0.0290224 0
1.39907 -0.0159167 0
1.33372 -0.0645236 0
1.34344 -0.0431266 0
1.34999 -0.025472 0
1.2851 -0.071275 0
1.2887 -0.04834 0
1.29039 -0.0282659 0
1.39907 -0.0159167 0
1.40404 -0.00713844 0
1.40625 0 0
1.34999 -0.025472 0
1.35335 -0.0128965 0
1.35352 0 0
1.29039 -0.0282659 0
1.29093 -0.0136911 0
1.28906 0 0
1.2851 -0.071275 0
1.2887 -0.04834 0
1.29039 -0.0282659 0
1.22259 -0.0796042 0
1.22308 -0.0564197 0
1.21916 -0.0333894 0
1.15637 -0.0793223 0
1.14661 -0.0554878 0
1.14011 -0.0327836 0
1.29039 -0.0282659 0
1.29093 -0.0136911 0
1.28906 0 0
1.21916 -0.0333894 0
1.21798 -0.0167882 0
1.21289 0 0
1.14011 -0.0327836 0
1.13189 -0.0161818 0
1.125 0 0
2.12649 -0.0666572 0
2.05365 -0.111702 0
2.04522 -0.185106 0
2.00708 0.00406922 0
1.97713 -0.0699763 0
1.92314 -0.130535 0
1.82675 0.0355423 0
1.7936 -0.0229819 0
1.75934 -0.0777245 0
2.04522 -0.185106 0
1.97557 -0.235983 0
1.96747 -0.294293 0
1.92314 -0.130535 0
1.88701 -0.183121 0
1.83432 -0.238132 0
1.75934 -0.0777245 0
1.71185 -0.126803 0
1.66011 -0.174174 0
1.82675 0.0355423 0
1.7936 -0.0229819 0
1.75934 -0.0777245 0
1.64243 0.0411077 0
1.62383 -0.0100151 0
1.59475 -0.0578499 0
1.47841 0.0542003 0
1.46184 0.0128977 0
1.43823 -0.0254542 0
1.75934 -0.0777245 0
1.71185 -0.126803 0
1.66011 -0.174174 0
1.59475 -0.0578499 0
1.56056 -0.101269 0
1.51809 -0.140401 0
1.43823 -0.0254542 0
1.40467 -0.0595166 0
1.36303 -0.0898617 0
1.96747 -0.294293 0
1.89287 -0.352551 0
1.86454 -0.405084 0
1.83432 -0.238132 0
1.77083 -0.287358 0
1.69045 -0.326747 0
1.66011 -0.174174 0
1.6022 -0.218027 0
1.54143 -0.255102 0
1.86454 -0.405084 0
1.73833 -0.429835 0
1.67191 -0.459852 0
1.69045 -0.326747 0
1.61316 -0.356432 0
1.52959 -0.374774 0
1.54143 -0.255102 0
1.47337 -0.280617 0
1.39814 -0.298758 0
1.66011 -0.174174 0
1.6022 -0.218027 0
1.54143 -0.255102 0
1.51809 -0.140401 0
1.46981 -0.172918 0
1.41301 -0.200016 0
1.36303 -0.0898617 0
1.31411 -0.11593 0
1.25866 -0.137831 0
1.54143 -0.255102 0
1.47337 -0.280617 0
1.39814 -0.298758 0
1.41301 -0.200016 0
1.35292 -0.22006 0
1.28738 -0.232997 0
1.25866 -0.137831 0
1.19955 -0.15362 0
1.13329 -0.163985 0
1.47841 0.0542003 0
1.46184 0.0128977 0
1.43823 -0.0254542 0
1.27676 0.0552215 0
1.26878 0.0249183 0
1.24891 -0.00438767 0
1.02043 0.0528236 0
1.02731 0.0342502 0
1.02184 0.0154907 0
1.43823 -0.0254542 0
1.40467 -0.0595166 0
1.36303 -0.0898617 0
1.24891 -0.00438767 0
1.22163 -0.0312113 0
1.18479 -0.0558971 0
1.02184 0.0154907 0
1.00657 -0.00219289 0
0.980641 -0.0188779 0
1.02043 0.0528236 0
1.02731 0.0342502 0
1.02184 0.0154907 0
0.620948 0.0172392 0
0.638314 0.0120262 0
0.647318 0.00636657 0
0 0 0
0 0 0
0 0 0
1.02184 0.0154907 0
1.00657 -0.00219289 0
0.980641 -0.0188779 0
0.647318 0.00636657 0
0.6463 0.000862372 0
0.63656 -0.00447531 0
0 0 0
0 0 0
0 0 0
1.36303 -0.0898617 0
1.31411 -0.11593 0
1.25866 -0.137831 0
1.18479 -0.0558971 0
1.1425 -0.0768114 0
1.0921 -0.0940635 0
0.980641 -0.0188779 0
0.947357 -0.0333439 0
0.905769 -0.0457192 0
1.25866 -0.137831 0
1.19955 -0.15362 0
1.13329 -0.163985 0
1.0921 -0.0940635 0
1.03959 -0.106638 0
0.981566 -0.11556 0
0.905769 -0.0457192 0
0.860541 -0.0548786 0
0.808874 -0.0611094 0
0.980641 -0.0188779 0
0.947357 -0.0333439 0
0.905769 -0.0457192 0
0.63656 -0.00447531 0
0.618455 -0.00912681 0
0.591934 -0.0134209 0
0 0 0
0 0 0
0 0 0
0.905769 -0.0457192 0
0.860541 -0.0548786 0
0.808874 -0.0611094 0
0.591934 -0.0134209 0
0.560406 -0.0168762 0
0.521945 -0.0193525 0
0 0 0
0 0 0
0 0 0
1.5467 0.618863 0
1.74689 0.612071 0
1.84865 0.575957 0
1.41204 0.511874 0
1.55213 0.517416 0
1.67829 0.5112 0
1.33584 0.427729 0
1.40519 0.415722 0
1.47744 0.405321 0
1.84865 0.575957 0
2.00632 0.510513 0
2.11953 0.414381 0
1.67829 0.5112 0
1.80415 0.461034 0
1.89902 0.388431 0
1.47744 0.405321 0
1.57024 0.37757 0
1.65739 0.332142 0
1.33584 0.427729 0
1.40519 0.415722 0
1.47744 0.405321 0
1.16337 0.332182 0
1.28277 0.345291 0
1.38277 0.338567 0
0.945854 0.234963 0
1.04132 0.243559 0
1.15121 0.253793 0
1.47744 0.405321 0
1.57024 0.37757 0
1.65739 0.332142 0
1.38277 0.338567 0
1.46022 0.308179 0
1.52496 0.269135 0
1.15121 0.253793 0
1.25301 0.245574 0
1.33812 0.225954 0
2.11953 0.414381 0
2.18531 0.279162 0
2.18196 0.142318 0
1.89902 0.388431 0
1.97073 0.29666 0
2.00539 0.202871 0
1.65739 0.332142 0
1.72281 0.260646 0
1.77276 0.187438 0
2.18196 0.142318 0
2.17394 0.0252309 0
2.12649 -0.0666572 0
2.00539 0.202871 0
2.02055 0.103925 0
2.00708 0.00406922 0
1.77276 0.187438 0
1.80974 0.110993 0
1.82675 0.0355423 0
1.65739 0.332142 0
1.72281 0.260646 0
1.77276 0.187438 0
1.52496 0.269135 0
1.57662 0.218528 0
1.61292 0.16194 0
1.33812 0.225954 0
1.39644 0.189887 0
1.44023 0.14888 0
1.77276 0.187438 0
1.80974 0.110993 0
1.82675 0.0355423 0
1.61292 0.16194 0
1.63447 0.101479 0
1.64243 0.0411077 0
1.44023 0.14888 0
1.46579 0.102133 0
1.47841 0.0542003 0
0.945854 0.234963 0
1.04132 0.243559 0
1.15121 0.253793 0
0.726515 0.152105 0
0.827468 0.157894 0
0.920985 0.163294 0
0.470885 0.0776482 0
0.552217 0.0822343 0
0.627353 0.0889108 0
1.15121 0.253793 0
1.25301 0.245574 0
1.33812 0.225954 0
0.920985 0.163294 0
1.01606 0.160506 0
1.09846 0.153148 0
0.627353 0.0889108 0
0.718574 0.0939552 0
0.797147 0.0957672 0
0.470885 0.0776482 0
0.552217 0.0822343 0
0.627353 0.0889108 0
0.243329 0.0207369 0
0.306072 0.0206674 0
0.342453 0.0203175 0
0 0 0
0 0 0
0 0 0
0.627353 0.0889108 0
0.718574 0.0939552 0
0.797147 0.0957672 0
0.342453 0.0203175 0
0.394944 0.0207623 0
0.440149 0.0215481 0
0 0 0
0 0 0
0 0 0
1.33812 0.225954 0
1.39644 0.189887 0
1.44023 0.14888 0
1.09846 0.153148 0
1.16942 0.137145 0
1.22125 0.114961 0
0.797147 0.0957672 0
0.874411 0.0920409 0
0.936302 0.0833606 0
1.44023 0.14888 0
1.46579 0.102133 0
1.47841 0.0542003 0
1.22125 0.114961 0
1.2577 0.0868675 0
1.27676 0.0552215 0
0.936302 0.0833606 0
0.987102 0.0699973 0
1.02043 0.0528236 0
0.797147 0.0957672 0
0.874411 0.0920409 0
0.936302 0.0833606 0
0.440149 0.0215481 0
0.491001 0.0228955 0
0.538145 0.0227512 0
0 0 0
0 0 0
0 0 0
0.936302 0.0833606 0
0.987102 0.0699973 0
1.02043 0.0528236 0
0.538145 0.0227512 0
0.582729 0.0207819 0
0.620948 0.0172392 0
0 0 0
0 0 0
0 0 0
1.02914 1.27758 0
0.828112 0.876517 0
0.783055 0.384381 0
1.27432 1.32422 0
1.13734 0.950168 0
1.02352 0.511653 0
1.51927 1.38614 0
1.43775 1.07344 0
1.42093 0.691791 0
0.783055 0.384381 0
0.500943 -0.143964 0
0.218143 -0.581405 0
1.02352 0.511653 0
0.748184 0.0367014 0
0.574901 -0.365762 0
1.42093 0.691791 0
1.07804 0.182783 0
0.907551 -0.165102 0
1.51927 1.38614 0
1.43775 1.07344 0
1.42093 0.691791 0
1.72863 1.36953 0
1.65667 1.10769 0
1.60083 0.824742 0
1.8035 1.25466 0
1.96071 1.1616 0
1.77999 0.824049 0
1.42093 0.691791 0
1.07804 0.182783 0
0.907551 -0.165102 0
1.60083 0.824742 0
1.42946 0.420239 0
1.19031 0.0214634 0
1.77999 0.824049 0
1.71828 0.560928 0
1.4268 0.140971 0
0.218143 -0.581405 0
-0.0808307 -1.12897 0
-0.330153 -1.32119 0
0.574901 -0.365762 0
0.220721 -0.7596 0
-0.106291 -1.04594 0
0.907551 -0.165102 0
0.535516 -0.546846 0
0.258824 -0.837468 0
-0.330153 -1.32119 0
-0.574667 -1.35764 0
-0.623464 -1.20627 0
-0.106291 -1.04594 0
-0.411152 -1.1726 0
-0.555541 -1.10831 0
0.258824 -0.837468 0
-0.0206625 -1.00504 0
-0.230251 -0.96369 0
0.907551 -0.165102 0
0.535516 -0.546846 0
0.258824 -0.837468 0
1.19031 0.0214634 0
1.01608 -0.25821 0
0.692149 -0.58682 0
1.4268 0.140971 0
1.27612 -0.0732545 0
0.987322 -0.366712 0
0.258824 -0.837468 0
-0.0206625 -1.00504 0
-0.230251 -0.96369 0
0.692149 -0.58682 0
0.476708 -0.743048 0
0.154901 -0.789407 0
0.987322 -0.366712 0
0.790141 -0.494863 0
0.454101 -0.631762 0
1.8035 1.25466 0
1.96071 1.1616 0
1.77999 0.824049 0
1.71279 1.02839 0
1.9887 1.09349 0
2.03683 0.919111 0
1.74375 0.878351 0
1.88348 0.88284 0
2.07398 0.858485 0
1.77999 0.824049 0
1.71828 0.560928 0
1.4268 0.140971 0
2.03683 0.919111 0
1.99906 0.673432 0
1.84964 0.356418 0
2.07398 0.858485 0
2.13975 0.695203 0
2.13733 0.500694 0
1.74375 0.878351 0
1.88348 0.88284 0
2.07398 0.858485 0
1.68872 0.768224 0
1.82757 0.757088 0
1.9495 0.740649 0
1.5467 0.618863 0
1.74689 0.612071 0
1.84865 0.575957 0
2.07398 0.858485 0
2.13975 0.695203 0
2.13733 0.500694 0
1.9495 0.740649 0
2.10544 0.652705 0
2.16641 0.495757 0
1.84865 0.575957 0
2.00632 0.510513 0
2.11953 0.414381 0
1.4268 0.140971 0
1.27612 -0.0732545 0
0.987322 -0.366712 0
1.84964 0.356418 0
1.59236 0.076208 0
1.30222 -0.200719 0
2.13733 0.500694 0
1.97792 0.303725 0
1.74275 0.108429 0
0.987322 -0.366712 0
0.790141 -0.494863 0
0.454101 -0.631762 0
1.30222 -0.200719 0
1.03283 -0.335948 0
0.744019 -0.392613 0
1.74275 0.108429 0
1.4748 -0.0127496 0
1.18878 -0.0800425 0
2.13733 0.500694 0
1.97792 0.303725 0
1.74275 0.108429 0
2.16641 0.495757 0
2.13925 0.318414 0
2.04564 0.151669 0
2.11953 0.414381 0
2.18531 0.279162 0
2.18196 0.142318 0
1.74275 0.108429 0
1.4748 -0.0127496 0
1.18878 -0.0800425 0
2.04564 0.151669 0
1.95004 0.0120514 0
1.83441 -0.0902486 0
2.18196 0.142318 0
2.17394 0.0252309 0
2.12649 -0.0666572 0
1.13435 0.29521 0
1.11086 0.193537 0
1.10812 0.0602609 0
0.735077 0.309981 0
0.810709 0.195462 0
0.89795 0.045574 0
0.504647 0.334411 0
0.460311 0.0447647 0
0.559229 -0.1459 0
1.10812 0.0602609 0
1.12606 -0.0607671 0
1.21986 -0.213653 0
0.89795 0.045574 0
0.980833 -0.111474 0
1.05258 -0.304869 0
0.559229 -0.1459 0
0.714314 -0.235551 0
0.846533 -0.420342 0
0.504647 0.334411 0
0.460311 0.0447647 0
0.559229 -0.1459 0
0.33563 0.500294 0
0.278521 0.14442 0
0.267989 -0.244873 0
0.318337 0.626889 0
0.177892 0.231432 0
0.126343 -0.215996 0
0.559229 -0.1459 0
0.714314 -0.235551 0
0.846533 -0.420342 0
0.267989 -0.244873 0
0.4557 -0.488852 0
0.679042 -0.636028 0
0.126343 -0.215996 0
0.190934 -0.547636 0
0.336892 -0.862076 0
1.21986 -0.213653 0
1.32761 -0.319637 0
1.45418 -0.395269 0
1.05258 -0.304869 0
1.18741 -0.459147 0
1.3788 -0.579436 0
0.846533 -0.420342 0
1.1004 -0.624861 0
1.38224 -0.732946 0
1.45418 -0.395269 0
1.57907 -0.42873 0
1.70086 -0.420052 0
1.3788 -0.579436 0
1.56491 -0.618939 0
1.80317 -0.645766 0
1.38224 -0.732946 0
1.63827 -0.815303 0
1.89855 -0.791448 0
0.846533 -0.420342 0
1.1004 -0.624861 0
1.38224 -0.732946 0
0.679042 -0.636028 0
0.973458 -0.827008 0
1.2164 -0.964992 0
0.336892 -0.862076 0
0.711243 -0.989724 0
0.859186 -1.13814 0
1.38224 -0.732946 0
1.63827 -0.815303 0
1.89855 -0.791448 0
1.2164 -0.964992 0
1.42674 -1.07114 0
1.57037 -0.96147 0
0.859186 -1.13814 0
1.02866 -1.25663 0
1.09931 -1.02736 0
0.318337 0.626889 0
0.177892 0.231432 0
0.126343 -0.215996 0
0.437194 0.829565 0
0.18327 0.296761 0
0.106953 -0.231667 0
0.532756 1.00161 0
0.327777 0.51284 0
0.190746 -0.00695199 0
0.126343 -0.215996 0
0.190934 -0.547636 0
0.336892 -0.862076 0
0.106953 -0.231667 0
0.0511974 -0.712012 0
-0.0399893 -1.10944 0
0.190746 -0.00695199 0
0.0157214 -0.559181 0
-0.232099 -1.16745 0
0.532756 1.00161 0
0.327777 0.51284 0
0.190746 -0.00695199 0
0.76304 1.13319 0
0.566352 0.640092 0
0.455442 0.0803814 0
1.02914 1.27758 0
0.828112 0.876517 0
0.783055 0.384381 0
0.190746 -0.00695199 0
0.0157214 -0.559181 0
-0.232099 -1.16745 0
0.455442 0.0803814 0
0.197804 -0.356118 0
-0.130888 -0.871348 0
0.783055 0.384381 0
0.500943 -0.143964 0
0.218143 -0.581405 0
0.336892 -0.862076 0
0.711243 -0.989724 0
0.859186 -1.13814 0
-0.0399893 -1.10944 0
0.255971 -1.25962 0
0.400985 -1.28058 0
-0.232099 -1.16745 0
-0.0868164 -1.43886 0
-0.0024154 -1.37745 0
0.859186 -1.13814 0
1.02866 -1.25663 0
1.09931 -1.02736 0
0.400985 -1.28058 0
0.49917 -1.3282 0
0.541597 -0.957905 0
-0.0024154 -1.37745 0
-0.00945648 -1.40761 0
0.0644484 -1.01873 0
-0.232099 -1.16745 0
-0.0868164 -1.43886 0
-0.0024154 -1.37745 0
-0.130888 -0.871348 0
-0.237755 -1.37301 0
-0.27367 -1.38874 0
0.218143 -0.581405 0
-0.0808307 -1.12897 0
-0.330153 -1.32119 0
-0.0024154 -1.37745 0
-0.00945648 -1.40761 0
0.0644484 -1.01873 0
-0.27367 -1.38874 0
-0.39539 -1.38701 0
-0.351423 -1.11165 0
-0.330153 -1.32119 0
-0.574667 -1.35764 0
-0.623464 -1.20627 0
0 0 0
0 0 0
0 0 0
0.34947 0.00677953 0
0.335363 0.003924 0
0.339853 0.000932937 0
0.716328 0.0212939 0
0.706801 0.0164405 0
0.703029 0.0101975 0
0 0 0
0 0 0
0 0 0
0.339853 0.000932937 0
0.338405 -0.00276062 0
0.351363 -0.00684603 0
0.703029 0.0101975 0
0.704246 -0.000537742 0
0.715681 -0.011977 0
0.716328 0.0212939 0