# vtk DataFile Version 3.0
#This file was generated by the deal.II library on 2025/1/8 at 3:35:13
ASCII
DATASET UNSTRUCTURED_GRID

POINTS 34560 double
1.1 1.1 0
1.03125 1.09531 0
0.9625 1.09063 0
1.09375 1.03125 0
1.02539 1.02686 0
0.957031 1.02246 0
1.0875 0.9625 0
1.01953 0.958398 0
0.951563 0.954297 0
0.9625 1.09063 0
0.89375 1.08594 0
0.825 1.08125 0
0.957031 1.02246 0
0.888672 1.01807 0
0.820312 1.01367 0
0.951563 0.954297 0
0.883594 0.950195 0
0.815625 0.946094 0
1.0875 0.9625 0
1.01953 0.958398 0
0.951563 0.954297 0
1.08125 0.89375 0
1.01367 0.889941 0
0.946094 0.886133 0
1.075 0.825 0
1.00781 0.821484 0
0.940625 0.817969 0
0.951563 0.954297 0
0.883594 0.950195 0
0.815625 0.946094 0
0.946094 0.886133 0
0.878516 0.882324 0
0.810938 0.878516 0
0.940625 0.817969 0
0.873438 0.814453 0
0.80625 0.810937 0
0.825 1.08125 0
0.75625 1.07656 0
0.6875 1.07187 0
0.820312 1.01367 0
0.751953 1.00928 0
0.683594 1.00488 0
0.815625 0.946094 0
0.747656 0.941992 0
0.679688 0.937891 0
0.6875 1.07187 0
0.61875 1.06719 0
0.55 1.0625 0
0.683594 1.00488 0
0.615234 1.00049 0
0.546875 0.996094 0
0.679688 0.937891 0
0.611719 0.933789 0
0.54375 0.929688 0
0.815625 0.946094 0
0.747656 0.941992 0
0.679688 0.937891 0
0.810938 0.878516 0
0.743359 0.874707 0
0.675781 0.870898 0
0.80625 0.810937 0
0.739063 0.807422 0
0.671875 0.803906 0
0.679688 0.937891 0
0.611719 0.933789 0
0.54375 0.929688 0
0.675781 0.870898 0
0.608203 0.86709 0
0.540625 0.863281 0
0.671875 0.803906 0
0.604688 0.800391 0
0.5375 0.796875 0
1.075 0.825 0
1.00781 0.821484 0
0.940625 0.817969 0
1.06875 0.75625 0
1.00195 0.753027 0
0.935156 0.749805 0
1.0625 0.6875 0
0.996094 0.68457 0
0.929688 0.681641 0
0.940625 0.817969 0
0.873438 0.814453 0
0.80625 0.810937 0
0.935156 0.749805 0
0.868359 0.746582 0
0.801563 0.743359 0
0.929688 0.681641 0
0.863281 0.678711 0
0.796875 0.675781 0
1.0625 0.6875 0
0.996094 0.68457 0
0.929688 0.681641 0
1.05625 0.61875 0
0.990234 0.616113 0
0.924219 0.613477 0
1.05 0.55 0
0.984375 0.547656 0
0.91875 0.545313 0
0.929688 0.681641 0
0.863281 0.678711 0
0.796875 0.675781 0
0.924219 0.613477 0
0.858203 0.61084 0
0.792188 0.608203 0
0.91875 0.545313 0
0.853125 0.542969 0
0.7875 0.540625 0
0.80625 0.810937 0
0.739063 0.807422 0
0.671875 0.803906 0
0.801563 0.743359 0
0.734766 0.740137 0
0.667969 0.736914 0
0.796875 0.675781 0
0.730469 0.672852 0
0.664062 0.669922 0
0.671875 0.803906 0
0.604688 0.800391 0
0.5375 0.796875 0
0.667969 0.736914 0
0.601172 0.733691 0
0.534375 0.730469 0
0.664062 0.669922 0
0.597656 0.666992 0
0.53125 0.664062 0
0.796875 0.675781 0
0.730469 0.672852 0
0.664062 0.669922 0
0.792188 0.608203 0
0.726172 0.605566 0
0.660156 0.60293 0
0.7875 0.540625 0
0.721875 0.538281 0
0.65625 0.535937 0
0.664062 0.669922 0
0.597656 0.666992 0
0.53125 0.664062 0
0.660156 0.60293 0
0.594141 0.600293 0
0.528125 0.597656 0
0.65625 0.535937 0
0.590625 0.533594 0
0.525 0.53125 0
0.55 1.0625 0
0.48125 1.05781 0
0.4125 1.05313 0
0.546875 0.996094 0
0.478516 0.991699 0
0.410156 0.987305 0
0.54375 0.929688 0
0.475781 0.925586 0
0.407813 0.921484 0
0.4125 1.05313 0
0.34375 1.04844 0
0.275 1.04375 0
0.410156 0.987305 0
0.341797 0.98291 0
0.273438 0.978516 0
0.407813 0.921484 0
0.339844 0.917383 0
0.271875 0.913281 0
0.54375 0.929688 0
0.475781 0.925586 0
0.407813 0.921484 0
0.540625 0.863281 0
0.473047 0.859473 0
0.405469 0.855664 0
0.5375 0.796875 0
0.470313 0.793359 0
0.403125 0.789844 0
0.407813 0.921484 0
0.339844 0.917383 0
0.271875 0.913281 0
0.405469 0.855664 0
0.337891 0.851855 0
0.270313 0.848047 0
0.403125 0.789844 0
0.335938 0.786328 0
0.26875 0.782813 0
0.275 1.04375 0
0.20625 1.03906 0
0.1375 1.03437 0
0.273438 0.978516 0
0.205078 0.974121 0
0.136719 0.969727 0
0.271875 0.913281 0
0.203906 0.90918 0
0.135938 0.905078 0
0.1375 1.03437 0
0.06875 1.02969 0
0 1.025 0
0.136719 0.969727 0
0.0683594 0.965332 0
0 0.960937 0
0.135938 0.905078 0
0.0679688 0.900977 0
0 0.896875 0
0.271875 0.913281 0
0.203906 0.90918 0
0.135938 0.905078 0
0.270313 0.848047 0
0.202734 0.844238 0
0.135156 0.84043 0
0.26875 0.782813 0
0.201563 0.779297 0
0.134375 0.775781 0
0.135938 0.905078 0
0.0679688 0.900977 0
0 0.896875 0
0.135156 0.84043 0
0.0675781 0.836621 0
0 0.832812 0
0.134375 0.775781 0
0.0671875 0.772266 0
0 0.76875 0
0.5375 0.796875 0
0.470313 0.793359 0
0.403125 0.789844 0
0.534375 0.730469 0
0.467578 0.727246 0
0.400781 0.724023 0
0.53125 0.664062 0
0.464844 0.661133 0
0.398438 0.658203 0
0.403125 0.789844 0
0.335938 0.786328 0
0.26875 0.782813 0
0.400781 0.724023 0
0.333984 0.720801 0
0.267188 0.717578 0
0.398438 0.658203 0
0.332031 0.655273 0
0.265625 0.652344 0
0.53125 0.664062 0
0.464844 0.661133 0
0.398438 0.658203 0
0.528125 0.597656 0
0.462109 0.59502 0
0.396094 0.592383 0
0.525 0.53125 0
0.459375 0.528906 0
0.39375 0.526563 0
0.398438 0.658203 0
0.332031 0.655273 0
0.265625 0.652344 0
0.396094 0.592383 0
0.330078 0.589746 0
0.264062 0.587109 0
0.39375 0.526563 0
0.328125 0.524219 0
0.2625 0.521875 0
0.26875 0.782813 0
0.201563 0.779297 0
0.134375 0.775781 0
0.267188 0.717578 0
0.200391 0.714355 0
0.133594 0.711133 0
0.265625 0.652344 0
0.199219 0.649414 0
0.132812 0.646484 0
0.134375 0.775781 0
0.0671875 0.772266 0
0 0.76875 0
0.133594 0.711133 0
0.0667969 0.70791 0
0 0.704687 0
0.132812 0.646484 0
0.0664062 0.643555 0
0 0.640625 0
0.265625 0.652344 0
0.199219 0.649414 0
0.132812 0.646484 0
0.264062 0.587109 0
0.198047 0.584473 0
0.132031 0.581836 0
0.2625 0.521875 0
0.196875 0.519531 0
0.13125 0.517187 0
0.132812 0.646484 0
0.0664062 0.643555 0
0 0.640625 0
0.132031 0.581836 0
0.0660156 0.579199 0
0 0.576562 0
0.13125 0.517187 0
0.065625 0.514844 0
0 0.5125 0
1.05 0.55 0
0.984375 0.547656 0
0.91875 0.545313 0
1.04375 0.48125 0
0.978516 0.479199 0
0.913281 0.477148 0
1.0375 0.4125 0
0.972656 0.410742 0
0.907813 0.408984 0
0.91875 0.545313 0
0.853125 0.542969 0
0.7875 0.540625 0
0.913281 0.477148 0
0.848047 0.475098 0
0.782813 0.473047 0
0.907813 0.408984 0
0.842969 0.407227 0
0.778125 0.405469 0
1.0375 0.4125 0
0.972656 0.410742 0
0.907813 0.408984 0
1.03125 0.34375 0
0.966797 0.342285 0
0.902344 0.34082 0
1.025 0.275 0
0.960937 0.273828 0
0.896875 0.272656 0
0.907813 0.408984 0
0.842969 0.407227 0
0.778125 0.405469 0
0.902344 0.34082 0
0.837891 0.339355 0
0.773438 0.337891 0
0.896875 0.272656 0
0.832812 0.271484 0
0.76875 0.270313 0
0.7875 0.540625 0
0.721875 0.538281 0
0.65625 0.535937 0
0.782813 0.473047 0
0.717578 0.470996 0
0.652344 0.468945 0
0.778125 0.405469 0
0.713281 0.403711 0
0.648438 0.401953 0
0.65625 0.535937 0
0.590625 0.533594 0
0.525 0.53125 0
0.652344 0.468945 0
0.587109 0.466895 0
0.521875 0.464844 0
0.648438 0.401953 0
0.583594 0.400195 0
0.51875 0.398438 0
0.778125 0.405469 0
0.713281 0.403711 0
0.648438 0.401953 0
0.773438 0.337891 0
0.708984 0.336426 0
0.644531 0.334961 0
0.76875 0.270313 0
0.704687 0.269141 0
0.640625 0.267969 0
0.648438 0.401953 0
0.583594 0.400195 0
0.51875 0.398438 0
0.644531 0.334961 0
0.580078 0.333496 0
0.515625 0.332031 0
0.640625 0.267969 0
0.576562 0.266797 0
0.5125 0.265625 0
1.025 0.275 0
0.960937 0.273828 0
0.896875 0.272656 0
1.01875 0.20625 0
0.955078 0.205371 0
0.891406 0.204492 0
1.0125 0.1375 0
0.949219 0.136914 0
0.885937 0.136328 0
0.896875 0.272656 0
0.832812 0.271484 0
0.76875 0.270313 0
0.891406 0.204492 0
0.827734 0.203613 0
0.764062 0.202734 0
0.885937 0.136328 0
0.822656 0.135742 0
0.759375 0.135156 0
1.0125 0.1375 0
0.949219 0.136914 0
0.885937 0.136328 0
1.00625 0.06875 0
0.943359 0.068457 0
0.880469 0.0681641 0
1 0 0
0.9375 0 0
0.875 0 0
0.885937 0.136328 0
0.822656 0.135742 0
0.759375 0.135156 0
0.880469 0.0681641 0
0.817578 0.0678711 0
0.754687 0.0675781 0
0.875 0 0
0.8125 0 0
0.75 0 0
0.76875 0.270313 0
0.704687 0.269141 0
0.640625 0.267969 0
0.764062 0.202734 0
0.700391 0.201855 0
0.636719 0.200977 0
0.759375 0.135156 0
0.696094 0.13457 0
0.632812 0.133984 0
0.640625 0.267969 0
0.576562 0.266797 0
0.5125 0.265625 0
0.636719 0.200977 0
0.573047 0.200098 0
0.509375 0.199219 0
0.632812 0.133984 0
0.569531 0.133398 0
0.50625 0.132812 0
0.759375 0.135156 0
0.696094 0.13457 0
0.632812 0.133984 0
0.754687 0.0675781 0
0.691797 0.0672852 0
0.628906 0.0669922 0
0.75 0 0
0.6875 0 0
0.625 0 0
0.632812 0.133984 0
0.569531 0.133398 0
0.50625 0.132812 0
0.628906 0.0669922 0
0.566016 0.0666992 0
0.503125 0.0664062 0
0.625 0 0
0.5625 0 0
0.5 0 0
0.525 0.53125 0
0.459375 0.528906 0
0.39375 0.526563 0
0.521875 0.464844 0
0.456641 0.462793 0
0.391406 0.460742 0
0.51875 0.398438 0
0.453906 0.39668 0
0.389063 0.394922 0
0.39375 0.526563 0
0.328125 0.524219 0
0.2625 0.521875 0
0.391406 0.460742 0
0.326172 0.458691 0
0.260938 0.456641 0
0.389063 0.394922 0
0.324219 0.393164 0
0.259375 0.391406 0
0.51875 0.398438 0
0.453906 0.39668 0
0.389063 0.394922 0
0.515625 0.332031 0
0.451172 0.330566 0
0.386719 0.329102 0
0.5125 0.265625 0
0.448437 0.264453 0
0.384375 0.263281 0
0.389063 0.394922 0
0.324219 0.393164 0
0.259375 0.391406 0
0.386719 0.329102 0
0.322266 0.327637 0
0.257812 0.326172 0
0.384375 0.263281 0
0.320312 0.262109 0
0.25625 0.260937 0
0.2625 0.521875 0
0.196875 0.519531 0
0.13125 0.517187 0
0.260938 0.456641 0
0.195703 0.45459 0
0.130469 0.452539 0
0.259375 0.391406 0
0.194531 0.389648 0
0.129688 0.387891 0
0.13125 0.517187 0
0.065625 0.514844 0
0 0.5125 0
0.130469 0.452539 0
0.0652344 0.450488 0
0 0.448437 0
0.129688 0.387891 0
0.0648438 0.386133 0
0 0.384375 0
0.259375 0.391406 0
0.194531 0.389648 0
0.129688 0.387891 0
0.257812 0.326172 0
0.193359 0.324707 0
0.128906 0.323242 0
0.25625 0.260937 0
0.192187 0.259766 0
0.128125 0.258594 0
0.129688 0.387891 0
0.0648438 0.386133 0
0 0.384375 0
0.128906 0.323242 0
0.0644531 0.321777 0
0 0.320312 0
0.128125 0.258594 0
0.0640625 0.257422 0
0 0.25625 0
0.5125 0.265625 0
0.448437 0.264453 0
0.384375 0.263281 0
0.509375 0.199219 0
0.445703 0.19834 0
0.382031 0.197461 0
0.50625 0.132812 0
0.442969 0.132227 0
0.379688 0.131641 0
0.384375 0.263281 0
0.320312 0.262109 0
0.25625 0.260937 0
0.382031 0.197461 0
0.318359 0.196582 0
0.254687 0.195703 0
[...]
POINT_DATA 34560
VECTORS v double
1.27252 -0.332899 0
1.2538 -0.305246 0
1.2372 -0.27945 0
1.23914 -0.311481 0
1.21878 -0.287373 0
1.20074 -0.263964 0
1.2008 -0.290086 0
1.17943 -0.268593 0
1.16003 -0.247443 0
1.2372 -0.27945 0
1.22251 -0.254259 0
1.20975 -0.230397 0
1.20074 -0.263964 0
1.18437 -0.241105 0
1.17023 -0.219101 0
1.16003 -0.247443 0
1.14248 -0.226698 0
1.12693 -0.206458 0
1.2008 -0.290086 0
1.17943 -0.268593 0
1.16003 -0.247443 0
1.15669 -0.266312 0
1.13435 -0.247507 0
1.11397 -0.228835 0
1.1064 -0.243282 0
1.08362 -0.226889 0
1.06263 -0.210412 0
1.16003 -0.247443 0
1.14248 -0.226698 0
1.12693 -0.206458 0
1.11397 -0.228835 0
1.09539 -0.21032 0
1.07879 -0.192113 0
1.06263 -0.210412 0
1.04344 -0.193923 0
1.02613 -0.17756 0
1.20975 -0.230397 0
1.19803 -0.207314 0
1.18797 -0.185233 0
1.17023 -0.219101 0
1.15698 -0.197645 0
1.14571 -0.176996 0
1.12693 -0.206458 0
1.11252 -0.186664 0
1.09998 -0.167425 0
1.18797 -0.185233 0
1.17838 -0.163914 0
1.17017 -0.143377 0
1.14571 -0.176996 0
1.13485 -0.15687 0
1.12565 -0.137432 0
1.09998 -0.167425 0
1.0881 -0.148617 0
1.07787 -0.130334 0
1.12693 -0.206458 0
1.11252 -0.186664 0
1.09998 -0.167425 0
1.07879 -0.192113 0
1.06341 -0.174137 0
1.04989 -0.156547 0
1.02613 -0.17756 0
1.01009 -0.161292 0
0.995861 -0.145263 0
1.09998 -0.167425 0
1.0881 -0.148617 0
1.07787 -0.130334 0
1.04989 -0.156547 0
1.0372 -0.13923 0
1.02616 -0.122299 0
0.995861 -0.145263 0
0.982571 -0.129397 0
0.970921 -0.113801 0
1.1064 -0.243282 0
1.08362 -0.226889 0
1.06263 -0.210412 0
1.05095 -0.219795 0
1.02797 -0.205636 0
1.00666 -0.191252 0
0.99101 -0.196864 0
0.968002 -0.18468 0
0.94652 -0.172181 0
1.06263 -0.210412 0
1.04344 -0.193923 0
1.02613 -0.17756 0
1.00666 -0.191252 0
0.987055 -0.176712 0
0.969227 -0.162175 0
0.94652 -0.172181 0
0.926663 -0.159454 0
0.908475 -0.146637 0
0.99101 -0.196864 0
0.968002 -0.18468 0
0.94652 -0.172181 0
0.926592 -0.173279 0
0.90363 -0.162965 0
0.882107 -0.152306 0
0.857792 -0.150446 0
0.835056 -0.141822 0
0.813645 -0.132836 0
0.94652 -0.172181 0
0.926663 -0.159454 0
0.908475 -0.146637 0
0.882107 -0.152306 0
0.862114 -0.141372 0
0.843714 -0.130286 0
0.813645 -0.132836 0
0.793672 -0.123549 0
0.775202 -0.114077 0
1.02613 -0.17756 0
1.01009 -0.161292 0
0.995861 -0.145263 0
0.969227 -0.162175 0
0.952713 -0.147624 0
0.937935 -0.133195 0
0.908475 -0.146637 0
0.891612 -0.133731 0
0.87642 -0.12086 0
0.995861 -0.145263 0
0.982571 -0.129397 0
0.970921 -0.113801 0
0.937935 -0.133195 0
0.924193 -0.118837 0
0.912068 -0.10465 0
0.87642 -0.12086 0
0.862338 -0.107989 0
0.849848 -0.0952118 0
0.908475 -0.146637 0
0.891612 -0.133731 0
0.87642 -0.12086 0
0.843714 -0.130286 0
0.826624 -0.119051 0
0.811157 -0.107782 0
0.775202 -0.114077 0
0.758014 -0.104424 0
0.742388 -0.0946948 0
0.87642 -0.12086 0
0.862338 -0.107989 0
0.849848 -0.0952118 0
0.811157 -0.107782 0
0.796843 -0.0964528 0
0.784102 -0.0851519 0
0.742388 -0.0946948 0
0.727942 -0.0848688 0
0.715044 -0.0750245 0
1.17017 -0.143377 0
1.16226 -0.123508 0
1.15548 -0.104279 0
1.12565 -0.137432 0
1.11676 -0.118492 0
1.10923 -0.100143 0
1.07787 -0.130334 0
1.06816 -0.112468 0
1.05986 -0.0950945 0
1.15548 -0.104279 0
1.14886 -0.0856459 0
1.14315 -0.0675501 0
1.10923 -0.100143 0
1.10191 -0.0822792 0
1.0957 -0.0649231 0
1.05986 -0.0950945 0
1.05195 -0.0781465 0
1.04523 -0.0616493 0
1.07787 -0.130334 0
1.06816 -0.112468 0
1.05986 -0.0950945 0
1.02616 -0.122299 0
1.01581 -0.10567 0
1.00691 -0.0894349 0
0.970921 -0.113801 0
0.960085 -0.0984241 0
0.950709 -0.0833525 0
1.05986 -0.0950945 0
1.05195 -0.0781465 0
1.04523 -0.0616493 0
1.00691 -0.0894349 0
0.99856 -0.0735477 0
0.991457 -0.0580414 0
0.950709 -0.0833525 0
0.942033 -0.0685672 0
0.934636 -0.0541057 0
1.14315 -0.0675501 0
1.13772 -0.0499789 0
1.13307 -0.0328685 0
1.0957 -0.0649231 0
1.08984 -0.0480403 0
1.08492 -0.031608 0
1.04523 -0.0616493 0
1.03901 -0.0455893 0
1.03383 -0.0299634 0
1.13307 -0.0328685 0
1.1287 -0.0162253 0
1.125 0 0
1.08492 -0.031608 0
1.08038 -0.0156204 0
1.07666 0 0
1.03383 -0.0299634 0
1.02915 -0.0147779 0
1.02539 0 0
1.04523 -0.0616493 0
1.03901 -0.0455893 0
1.03383 -0.0299634 0
0.991457 -0.0580414 0
0.984994 -0.0429244 0
0.979629 -0.0282124 0
0.934636 -0.0541057 0
0.927993 -0.0400005 0
0.922492 -0.0262701 0
1.03383 -0.0299634 0
1.02915 -0.0147779 0
1.02539 0 0
0.979629 -0.0282124 0
0.974915 -0.0139215 0
0.971191 0 0
0.922492 -0.0262701 0
0.917756 -0.0129478 0
0.914062 0 0
0.970921 -0.113801 0
0.960085 -0.0984241 0
0.950709 -0.0833525 0
0.912068 -0.10465 0
0.900864 -0.0906036 0
0.891128 -0.0767814 0
0.849848 -0.0952118 0
0.838368 -0.082512 0
0.828361 -0.0699683 0
0.950709 -0.0833525 0
0.942033 -0.0685672 0
0.934636 -0.0541057 0
0.891128 -0.0767814 0
0.882212 -0.0631828 0
0.874607 -0.0498535 0
0.828361 -0.0699683 0
0.81928 -0.0575959 0
0.811536 -0.0454425 0
0.849848 -0.0952118 0
0.838368 -0.082512 0
0.828361 -0.0699683 0
0.784102 -0.0851519 0
0.77244 -0.0738681 0
0.762258 -0.0626775 0
0.715044 -0.0750245 0
0.703278 -0.0651561 0
0.692995 -0.0553309 0
0.828361 -0.0699683 0
0.81928 -0.0575959 0
0.811536 -0.0454425 0
0.762258 -0.0626775 0
0.753088 -0.0516014 0
0.745281 -0.0406946 0
0.692995 -0.0553309 0
0.683797 -0.0455761 0
0.675987 -0.0359456 0
0.934636 -0.0541057 0
0.927993 -0.0400005 0
0.922492 -0.0262701 0
0.874607 -0.0498535 0
0.867854 -0.0368391 0
0.862286 -0.0241695 0
0.811536 -0.0454425 0
0.804729 -0.0335694 0
0.799139 -0.0220116 0
0.922492 -0.0262701 0
0.917756 -0.0129478 0
0.914062 0 0
0.862286 -0.0241695 0
0.857595 -0.0118944 0
0.854004 0 0
0.799139 -0.0220116 0
0.794511 -0.0108326 0
0.791016 0 0
0.811536 -0.0454425 0
0.804729 -0.0335694 0
0.799139 -0.0220116 0
0.745281 -0.0406946 0
0.738482 -0.0300266 0
0.732933 -0.0196449 0
0.675987 -0.0359456 0
0.669247 -0.0265174 0
0.663782 -0.0173427 0
0.799139 -0.0220116 0
0.794511 -0.0108326 0
0.791016 0 0
0.732933 -0.0196449 0
0.728426 -0.00962831 0
0.725098 0 0
0.663782 -0.0173427 0
0.659418 -0.00851362 0
0.65625 0 0
0.857792 -0.150446 0
0.835056 -0.141822 0
0.813645 -0.132836 0
0.785068 -0.127387 0
0.762598 -0.120306 0
0.741372 -0.112882 0
0.708195 -0.104941 0
0.686115 -0.0992838 0
0.665186 -0.0933175 0
0.813645 -0.132836 0
0.793672 -0.123549 0
0.775202 -0.114077 0
0.741372 -0.112882 0
0.72148 -0.105166 0
0.703021 -0.0972604 0
0.665186 -0.0933175 0
0.645499 -0.0870803 0
0.627168 -0.0806649 0
0.708195 -0.104941 0
0.686115 -0.0992838 0
0.665186 -0.0933175 0
0.626947 -0.0824075 0
0.605357 -0.0780489 0
0.584854 -0.0734382 0
0.53953 -0.0606795 0
0.518764 -0.0575323 0
0.499007 -0.054193 0
0.665186 -0.0933175 0
0.645499 -0.0870803 0
0.627168 -0.0806649 0
0.584854 -0.0734382 0
0.565494 -0.0685982 0
0.547425 -0.0636097 0
0.499007 -0.054193 0
0.480297 -0.0506714 0
0.462803 -0.0470389 0
0.775202 -0.114077 0
0.758014 -0.104424 0
0.742388 -0.0946948 0
0.703021 -0.0972604 0
0.685806 -0.0891675 0
0.670104 -0.0809774 0
0.627168 -0.0806649 0
0.610038 -0.0740684 0
0.594364 -0.067371 0
0.742388 -0.0946948 0
0.727942 -0.0848688 0
0.715044 -0.0750245 0
0.670104 -0.0809774 0
0.655594 -0.0726712 0
0.64261 -0.0643178 0
0.594364 -0.067371 0
0.579881 -0.0605535 0
0.566896 -0.0536749 0
0.627168 -0.0806649 0
0.610038 -0.0740684 0
0.594364 -0.067371 0
0.547425 -0.0636097 0
0.530503 -0.0584643 0
0.514984 -0.0532312 0
0.462803 -0.0470389 0
0.446388 -0.043281 0
0.431307 -0.0394576 0
0.594364 -0.067371 0
0.579881 -0.0605535 0
0.566896 -0.0536749 0
0.514984 -0.0532312 0
0.500638 -0.04789 0
0.487756 -0.0424895 0
0.431307 -0.0394576 0
0.417355 -0.0355468 0
0.404813 -0.0315904 0
0.53953 -0.0606795 0
0.518764 -0.0575323 0
0.499007 -0.054193 0
0.442933 -0.0396585 0
0.423554 -0.0375845 0
0.405127 -0.0353897 0
0.329138 -0.0206291 0
0.312645 -0.0195597 0
0.296976 -0.0184341 0
0.499007 -0.054193 0
0.480297 -0.0506714 0
0.462803 -0.0470389 0
0.405127 -0.0353897 0
0.387638 -0.0330702 0
0.371293 -0.0306859 0
0.296976 -0.0184341 0
0.282103 -0.0172327 0
0.268226 -0.0160047 0
0.329138 -0.0206291 0
0.312645 -0.0195597 0
0.296976 -0.0184341 0
0.185661 -0.0061079 0
0.174935 -0.00576343 0
0.164847 -0.00541765 0
0 0 0
0 0 0
0 0 0
0.296976 -0.0184341 0
0.282103 -0.0172327 0
0.268226 -0.0160047 0
0.164847 -0.00541765 0
0.155241 -0.00503893 0
0.146373 -0.00466813 0
0 0 0
0 0 0
0 0 0
0.462803 -0.0470389 0
0.446388 -0.043281 0
0.431307 -0.0394576 0
0.371293 -0.0306859 0
0.355934 -0.0282171 0
0.341826 -0.0257128 0
0.268226 -0.0160047 0
0.255193 -0.0147252 0
0.243241 -0.0134345 0
0.431307 -0.0394576 0
0.417355 -0.0355468 0
0.404813 -0.0315904 0
0.341826 -0.0257128 0
0.328768 -0.0231508 0
0.317032 -0.0205661 0
0.243241 -0.0134345 0
0.232188 -0.0121102 0
0.22227 -0.0107821 0
0.268226 -0.0160047 0
0.255193 -0.0147252 0
0.243241 -0.0134345 0
0.146373 -0.00466813 0
0.138021 -0.00427165 0
0.130448 -0.00388519 0
0 0 0
0 0 0
0 0 0
0.243241 -0.0134345 0
0.232188 -0.0121102 0
0.22227 -0.0107821 0
0.130448 -0.00388519 0
0.123421 -0.00348072 0
0.117191 -0.00308707 0
0 0 0
0 0 0
0 0 0
0.715044 -0.0750245 0
0.703278 -0.0651561 0
0.692995 -0.0553309 0
0.64261 -0.0643178 0
0.630799 -0.0559095 0
0.620477 -0.0475049 0
0.566896 -0.0536749 0
0.555111 -0.0467251 0
0.544814 -0.0397528 0
0.692995 -0.0553309 0
0.683797 -0.0455761 0
0.675987 -0.0359456 0
0.620477 -0.0475049 0
0.611304 -0.0391275 0
0.603544 -0.0308316 0
0.544814 -0.0397528 0
0.535717 -0.0327763 0
0.528059 -0.025843 0
0.566896 -0.0536749 0
0.555111 -0.0467251 0
0.544814 -0.0397528 0
0.487756 -0.0424895 0
0.476083 -0.0370163 0
0.46589 -0.0315082 0
0.404813 -0.0315904 0
0.393455 -0.0275714 0
0.383545 -0.0235176 0
0.544814 -0.0397528 0
0.535717 -0.0327763 0
0.528059 -0.025843 0
0.46589 -0.0315082 0
0.456935 -0.0259738 0
0.449439 -0.0204506 0
0.383545 -0.0235176 0
0.374875 -0.0194264 0
0.36766 -0.0153256 0
0.675987 -0.0359456 0
0.669247 -0.0265174 0
0.663782 -0.0173427 0
0.603544 -0.0308316 0
0.596911 -0.0226953 0
0.591583 -0.0147809 0
0.528059 -0.025843 0
0.521579 -0.0190284 0
0.51643 -0.0123951 0
0.663782 -0.0173427 0
0.659418 -0.00851362 0
0.65625 0 0
0.591583 -0.0147809 0
0.587413 -0.00719282 0
0.584473 0 0
0.51643 -0.0123951 0
0.512479 -0.00606056 0
0.509766 0 0
0.528059 -0.025843 0
0.521579 -0.0190284 0
0.51643 -0.0123951 0
0.449439 -0.0204506 0
0.44316 -0.0150016 0
0.438239 -0.00969783 0
0.36766 -0.0153256 0
0.36168 -0.01126 0
0.357063 -0.00728337 0
0.51643 -0.0123951 0
0.512479 -0.00606056 0
0.509766 0 0
0.438239 -0.00969783 0
0.434552 -0.00465775 0
0.432129 0 0
0.357063 -0.00728337 0
0.353688 -0.00353069 0
0.351562 0 0
0.404813 -0.0315904 0
0.393455 -0.0275714 0
0.383545 -0.0235176 0
0.317032 -0.0205661 0
0.306409 -0.017941 0
0.297154 -0.0152938 0
0.22227 -0.0107821 0
0.213304 -0.00943207 0
0.20551 -0.00807352 0
0.383545 -0.0235176 0
0.374875 -0.0194264 0
0.36766 -0.0153256 0
0.297154 -0.0152938 0
0.289081 -0.0126151 0
0.282404 -0.00992237 0
0.20551 -0.00807352 0
0.198723 -0.0066939 0
0.193142 -0.00530798 0
0.22227 -0.0107821 0
0.213304 -0.00943207 0
0.20551 -0.00807352 0
0.117191 -0.00308707 0
0.111536 -0.00268378 0
0.106687 -0.0022845 0
0 0 0
0 0 0
0 0 0
0.20551 -0.00807352 0
0.198723 -0.0066939 0
0.193142 -0.00530798 0
0.106687 -0.0022845 0
0.102441 -0.00187195 0
0.0989964 -0.00146538 0
0 0 0
0 0 0
0 0 0
0.36766 -0.0153256 0
0.36168 -0.01126 0
0.357063 -0.00728337 0
0.282404 -0.00992237 0
0.276928 -0.00723506 0
0.272786 -0.00459292 0
0.193142 -0.00530798 0
0.188615 -0.0039164 0
0.185272 -0.00251615 0
0.357063 -0.00728337 0
0.353688 -0.00353069 0
0.351562 0 0
0.272786 -0.00459292 0
0.269829 -0.00210055 0
0.268066 0 0
0.185272 -0.00251615 0
0.182953 -0.00119659 0
0.181641 0 0
0.193142 -0.00530798 0
0.188615 -0.0039164 0
0.185272 -0.00251615 0
0.0989964 -0.00146538 0
0.0962006 -0.00106318 0
0.0942491 -0.0006448 0
0 0 0
0 0 0
0 0 0
0.185272 -0.00251615 0
0.182953 -0.00119659 0
0.181641 0 0
0.0942491 -0.0006448 0
0.0929137 -0.000209718 0
0.0922852 0 0
0 0 0
0 0 0
0 0 0
1.80893 -0.35533 0
1.7697 -0.391109 0
1.72628 -0.420784 0
1.73418 -0.305104 0
1.69918 -0.338365 0
1.6606 -0.366225 0
1.65448 -0.262541 0
1.6249 -0.29317 0
1.59178 -0.319328 0
1.72628 -0.420784 0
1.68197 -0.443096 0
1.6351 -0.458884 0
1.6606 -0.366225 0
1.62105 -0.388257 0
1.5792 -0.404553 0
1.59178 -0.319328 0
1.55764 -0.340681 0
1.52119 -0.357122 0
1.65448 -0.262541 0
1.6249 -0.29317 0
1.59178 -0.319328 0
1.58045 -0.228614 0
1.55462 -0.255334 0
1.52568 -0.27848 0
1.50338 -0.195365 0
1.47989 -0.219458 0
1.45358 -0.24053 0
1.59178 -0.319328 0
1.55764 -0.340681 0
1.52119 -0.357122 0
1.52568 -0.27848 0
1.49548 -0.297654 0
1.46307 -0.312828 0
1.45358 -0.24053 0
1.42613 -0.258297 0
1.39667 -0.272686 0
1.6351 -0.458884 0
1.59099 -0.468008 0
1.54614 -0.470869 0
1.5792 -0.404553 0
1.5395 -0.415152 0
1.49899 -0.420671 0
1.52119 -0.357122 0
1.48619 -0.368777 0
1.45022 -0.375839 0
1.54614 -0.470869 0
1.50575 -0.468967 0
1.46593 -0.462347 0
1.49899 -0.420671 0
1.46197 -0.4216 0
1.42534 -0.418404 0
1.45022 -0.375839 0
1.41674 -0.378756 0
1.38338 -0.377832 0
1.52119 -0.357122 0
1.48619 -0.368777 0
1.45022 -0.375839 0
1.46307 -0.312828 0
1.43141 -0.323987 0
1.39864 -0.331332 0
1.39667 -0.272686 0
1.36766 -0.283689 0
1.33761 -0.291442 0
1.45022 -0.375839 0
1.41674 -0.378756 0
1.38338 -0.377832 0
1.39864 -0.331332 0
1.36759 -0.335188 0
1.33639 -0.335744 0
1.33761 -0.291442 0
1.30883 -0.296145 0
1.27985 -0.29795 0
1.50338 -0.195365 0
1.47989 -0.219458 0
1.45358 -0.24053 0
1.42414 -0.167421 0
1.40302 -0.189075 0
1.37928 -0.208154 0
1.3457 -0.141027 0
1.32652 -0.160468 0
1.30485 -0.177753 0
1.45358 -0.24053 0
1.42613 -0.258297 0
1.39667 -0.272686 0
1.37928 -0.208154 0
1.35445 -0.224396 0
1.3277 -0.237763 0
1.30485 -0.177753 0
1.28207 -0.192629 0
1.25746 -0.205057 0
1.3457 -0.141027 0
1.32652 -0.160468 0
1.30485 -0.177753 0
1.2664 -0.117697 0
1.24878 -0.134794 0
1.22882 -0.150081 0
1.18513 -0.0956338 0
1.16874 -0.110653 0
1.1501 -0.124176 0
1.30485 -0.177753 0
1.28207 -0.192629 0
1.25746 -0.205057 0
1.22882 -0.150081 0
1.20771 -0.163343 0
1.18483 -0.174551 0
1.1501 -0.124176 0
1.13034 -0.136014 0
1.10886 -0.146131 0
1.39667 -0.272686 0
1.36766 -0.283689 0
1.33761 -0.291442 0
1.3277 -0.237763 0
1.30118 -0.248217 0
1.27359 -0.255863 0
1.25746 -0.205057 0
1.23283 -0.214982 0
1.20713 -0.222483 0
1.33761 -0.291442 0
1.30883 -0.296145 0
1.27985 -0.29795 0
1.27359 -0.255863 0
1.24691 -0.260849 0
1.21991 -0.263278 0
1.20713 -0.222483 0
1.18203 -0.227657 0
1.15654 -0.230587 0
1.25746 -0.205057 0
1.23283 -0.214982 0
1.20713 -0.222483 0
1.18483 -0.174551 0
1.16175 -0.183654 0
1.13757 -0.190701 0
1.10886 -0.146131 0
1.08707 -0.154473 0
1.06418 -0.161076 0
1.20713 -0.222483 0
1.18203 -0.227657 0
1.15654 -0.230587 0
1.13757 -0.190701 0
1.11377 -0.19577 0
1.08949 -0.198909 0
1.06418 -0.161076 0
1.04149 -0.165988 0
1.01829 -0.169244 0
1.46593 -0.462347 0
1.43145 -0.452659 0
1.3987 -0.439269 0
1.42534 -0.418404 0
1.39323 -0.411768 0
1.36252 -0.402249 0
1.38338 -0.377832 0
1.35347 -0.373768 0
1.32461 -0.366841 0
1.3987 -0.439269 0
1.37043 -0.424339 0
1.34435 -0.407411 0
1.36252 -0.402249 0
1.33559 -0.390632 0
1.3106 -0.377013 0
1.32461 -0.366841 0
1.29872 -0.357679 0
1.27432 -0.346488 0
1.38338 -0.377832 0
1.35347 -0.373768 0
1.32461 -0.366841 0
1.33639 -0.335744 0
1.3079 -0.333506 0
1.28012 -0.328681 0
1.27985 -0.29795 0
1.25305 -0.297224 0
1.22684 -0.294181 0
1.32461 -0.366841 0
1.29872 -0.357679 0
1.27432 -0.346488 0
1.28012 -0.328681 0
1.25482 -0.321833 0
1.2308 -0.313091 0
1.22684 -0.294181 0
1.20269 -0.289225 0
1.17964 -0.282479 0
1.34435 -0.407411 0
1.32238 -0.389698 0
1.30313 -0.370659 0
1.3106 -0.377013 0
1.28929 -0.362027 0
1.27025 -0.345888 0
1.27432 -0.346488 0
1.25298 -0.333864 0
1.23356 -0.31996 0
1.30313 -0.370659 0
1.28672 -0.351731 0
1.27252 -0.332899 0
1.27025 -0.345888 0
1.25359 -0.329057 0
1.23914 -0.311481 0
1.23356 -0.31996 0
1.2162 -0.305263 0
1.2008 -0.290086 0
1.27432 -0.346488 0
1.25298 -0.333864 0
1.23356 -0.31996 0
1.2308 -0.313091 0
1.20955 -0.302962 0
1.19003 -0.291588 0
1.17964 -0.282479 0
1.15899 -0.274336 0
1.13983 -0.264937 0
1.23356 -0.31996 0
1.2162 -0.305263 0
1.2008 -0.290086 0
1.19003 -0.291588 0
1.17246 -0.279357 0
1.15669 -0.266312 0
1.13983 -0.264937 0
1.12233 -0.254547 0
1.1064 -0.243282 0
1.27985 -0.29795 0
1.25305 -0.297224 0
1.22684 -0.294181 0
1.21991 -0.263278 0
1.19463 -0.263456 0
1.16975 -0.261549 0
1.15654 -0.230587 0
1.13236 -0.231507 0
1.10844 -0.230562 0
1.22684 -0.294181 0
1.20269 -0.289225 0
1.17964 -0.282479 0
1.16975 -0.261549 0
1.14653 -0.257892 0
1.12418 -0.252566 0
1.10844 -0.230562 0
1.08588 -0.228014 0
1.06405 -0.223947 0
1.15654 -0.230587 0
1.13236 -0.231507 0
1.10844 -0.230562 0
1.08949 -0.198909 0
1.06624 -0.200312 0
1.04313 -0.200074 0
1.01829 -0.169244 0
0.995861 -0.170987 0
0.973475 -0.171302 0
1.10844 -0.230562 0
1.08588 -0.228014 0
1.06405 -0.223947 0
1.04313 -0.200074 0
1.02115 -0.198416 0
0.999757 -0.195395 0
0.973475 -0.171302 0
0.952005 -0.170355 0
0.931008 -0.168198 0
1.17964 -0.282479 0
1.15899 -0.274336 0
1.13983 -0.264937 0
1.12418 -0.252566 0
1.10382 -0.245923 0
1.08474 -0.238112 0
1.06405 -0.223947 0
1.04393 -0.218659 0
1.02494 -0.212277 0
1.13983 -0.264937 0
1.12233 -0.254547 0
1.1064 -0.243282 0
1.08474 -0.238112 0
1.06714 -0.22939 0
1.05095 -0.219795 0
1.02494 -0.212277 0
1.00733 -0.204996 0
0.99101 -0.196864 0
1.06405 -0.223947 0
1.04393 -0.218659 0
1.02494 -0.212277 0
0.999757 -0.195395 0
0.979837 -0.191255 0
0.960897 -0.186093 0
0.931008 -0.168198 0
0.911249 -0.165024 0
0.892346 -0.160929 0
1.02494 -0.212277 0
1.00733 -0.204996 0
0.99101 -0.196864 0
0.960897 -0.186093 0
0.943165 -0.180082 0
0.926592 -0.173279 0
0.892346 -0.160929 0
0.874533 -0.156055 0
0.857792 -0.150446 0
1.18513 -0.0956338 0
1.16874 -0.110653 0
1.1501 -0.124176 0
1.10238 -0.0763381 0
1.08708 -0.0892698 0
1.06962 -0.100967 0
1.01688 -0.0578277 0
1.00258 -0.0688054 0
0.986134 -0.0787878 0
1.1501 -0.124176 0
1.13034 -0.136014 0
1.10886 -0.146131 0
1.06962 -0.100967 0
1.05102 -0.111261 0
1.03075 -0.120123 0
0.986134 -0.0787878 0
0.968546 -0.0876311 0
0.949281 -0.0953031 0
1.01688 -0.0578277 0
1.00258 -0.0688054 0
0.986134 -0.0787878 0
0.925797 -0.041478 0
0.912724 -0.0504393 0
0.897491 -0.0586249 0
0.823449 -0.0265786 0
0.812118 -0.033515 0
0.798509 -0.0398933 0
0.986134 -0.0787878 0
0.968546 -0.0876311 0
0.949281 -0.0953031 0
0.897491 -0.0586249 0
0.881042 -0.0659123 0
0.86288 -0.0722744 0
0.798509 -0.0398933 0
0.783594 -0.0456158 0
0.76688 -0.0506497 0
1.10886 -0.146131 0
1.08707 -0.154473 0
1.06418 -0.161076 0
1.03075 -0.120123 0
1.01005 -0.1275 0
0.988228 -0.133418 0
0.949281 -0.0953031 0
0.929495 -0.101758 0
0.908562 -0.107011 0
1.06418 -0.161076 0
1.04149 -0.165988 0
1.01829 -0.169244 0
0.988228 -0.133418 0
0.966458 -0.137913 0
0.944108 -0.141007 0
0.908562 -0.107011 0
0.887558 -0.111086 0
0.865926 -0.113998 0
0.949281 -0.0953031 0
0.929495 -0.101758 0
0.908562 -0.107011 0
0.86288 -0.0722744 0
0.844083 -0.077671 0
0.824087 -0.0821072 0
0.76688 -0.0506497 0
0.749399 -0.0549631 0
0.730637 -0.0585498 0
0.908562 -0.107011 0
0.887558 -0.111086 0
0.865926 -0.113998 0
0.824087 -0.0821072 0
0.803893 -0.0856029 0
0.783005 -0.0881609 0
0.730637 -0.0585498 0
0.711544 -0.0614262 0
0.691677 -0.0635846 0
0.823449 -0.0265786 0
0.812118 -0.033515 0
0.798509 -0.0398933 0
0.699487 -0.0147588 0
0.690858 -0.0195552 0
0.679865 -0.023997 0
0.536456 -0.0055447 0
0.531345 -0.00820806 0
0.523947 -0.0106979 0
0.798509 -0.0398933 0
0.783594 -0.0456158 0
0.76688 -0.0506497 0
0.679865 -0.023997 0
0.667421 -0.028013 0
0.653064 -0.0315688 0
0.523947 -0.0106979 0
0.515076 -0.0129774 0
0.504323 -0.0150144 0
0.536456 -0.0055447 0
0.531345 -0.00820806 0
0.523947 -0.0106979 0
0.311774 -0.00142175 0
0.310062 -0.00224843 0
0.306605 -0.00301996 0
0 0 0
0 0 0
0 0 0
0.523947 -0.0106979 0
0.515076 -0.0129774 0
0.504323 -0.0150144 0
0.306605 -0.00301996 0
0.302149 -0.00373397 0
0.296194 -0.00436201 0
0 0 0
0 0 0
0 0 0
0.76688 -0.0506497 0
0.749399 -0.0549631 0
0.730637 -0.0585498 0
0.653064 -0.0315688 0
0.637769 -0.0346426 0
0.621072 -0.0372185 0
0.504323 -0.0150144 0
0.492526 -0.0168045 0
0.479309 -0.018321 0
0.730637 -0.0585498 0
0.711544 -0.0614262 0
0.691677 -0.0635846 0