# vtk DataFile Version 3.0
#This file was generated by the deal.II library on 2025/1/8 at 2:10:35
ASCII
DATASET UNSTRUCTURED_GRID

POINTS 34560 double
1.1 1.1 0
1.03125 1.09531 0
0.9625 1.09063 0
1.09375 1.03125 0
1.02539 1.02686 0
0.957031 1.02246 0
1.0875 0.9625 0
1.01953 0.958398 0
0.951563 0.954297 0
0.9625 1.09063 0
0.89375 1.08594 0
0.825 1.08125 0
0.957031 1.02246 0
0.888672 1.01807 0
0.820312 1.01367 0
0.951563 0.954297 0
0.883594 0.950195 0
0.815625 0.946094 0
1.0875 0.9625 0
1.01953 0.958398 0
0.951563 0.954297 0
1.08125 0.89375 0
1.01367 0.889941 0
0.946094 0.886133 0
1.075 0.825 0
1.00781 0.821484 0
0.940625 0.817969 0
0.951563 0.954297 0
0.883594 0.950195 0
0.815625 0.946094 0
0.946094 0.886133 0
0.878516 0.882324 0
0.810938 0.878516 0
0.940625 0.817969 0
0.873438 0.814453 0
0.80625 0.810937 0
0.825 1.08125 0
0.75625 1.07656 0
0.6875 1.07187 0
0.820312 1.01367 0
0.751953 1.00928 0
0.683594 1.00488 0
0.815625 0.946094 0
0.747656 0.941992 0
0.679688 0.937891 0
0.6875 1.07187 0
0.61875 1.06719 0
0.55 1.0625 0
0.683594 1.00488 0
0.615234 1.00049 0
0.546875 0.996094 0
0.679688 0.937891 0
0.611719 0.933789 0
0.54375 0.929688 0
0.815625 0.946094 0
0.747656 0.941992 0
0.679688 0.937891 0
0.810938 0.878516 0
0.743359 0.874707 0
0.675781 0.870898 0
0.80625 0.810937 0
0.739063 0.807422 0
0.671875 0.803906 0
0.679688 0.937891 0
0.611719 0.933789 0
0.54375 0.929688 0
0.675781 0.870898 0
0.608203 0.86709 0
0.540625 0.863281 0
0.671875 0.803906 0
0.604688 0.800391 0
0.5375 0.796875 0
1.075 0.825 0
1.00781 0.821484 0
0.940625 0.817969 0
1.06875 0.75625 0
1.00195 0.753027 0
0.935156 0.749805 0
1.0625 0.6875 0
0.996094 0.68457 0
0.929688 0.681641 0
0.940625 0.817969 0
0.873438 0.814453 0
0.80625 0.810937 0
0.935156 0.749805 0
0.868359 0.746582 0
0.801563 0.743359 0
0.929688 0.681641 0
0.863281 0.678711 0
0.796875 0.675781 0
1.0625 0.6875 0
0.996094 0.68457 0
0.929688 0.681641 0
1.05625 0.61875 0
0.990234 0.616113 0
0.924219 0.613477 0
1.05 0.55 0
0.984375 0.547656 0
0.91875 0.545313 0
0.929688 0.681641 0
0.863281 0.678711 0
0.796875 0.675781 0
0.924219 0.613477 0
0.858203 0.61084 0
0.792188 0.608203 0
0.91875 0.545313 0
0.853125 0.542969 0
0.7875 0.540625 0
0.80625 0.810937 0
0.739063 0.807422 0
0.671875 0.803906 0
0.801563 0.743359 0
0.734766 0.740137 0
0.667969 0.736914 0
0.796875 0.675781 0
0.730469 0.672852 0
0.664062 0.669922 0
0.671875 0.803906 0
0.604688 0.800391 0
0.5375 0.796875 0
0.667969 0.736914 0
0.601172 0.733691 0
0.534375 0.730469 0
0.664062 0.669922 0
0.597656 0.666992 0
0.53125 0.664062 0
0.796875 0.675781 0
0.730469 0.672852 0
0.664062 0.669922 0
0.792188 0.608203 0
0.726172 0.605566 0
0.660156 0.60293 0
0.7875 0.540625 0
0.721875 0.538281 0
0.65625 0.535937 0
0.664062 0.669922 0
0.597656 0.666992 0
0.53125 0.664062 0
0.660156 0.60293 0
0.594141 0.600293 0
0.528125 0.597656 0
0.65625 0.535937 0
0.590625 0.533594 0
0.525 0.53125 0
0.55 1.0625 0
0.48125 1.05781 0
0.4125 1.05313 0
0.546875 0.996094 0
0.478516 0.991699 0
0.410156 0.987305 0
0.54375 0.929688 0
0.475781 0.925586 0
0.407813 0.921484 0
0.4125 1.05313 0
0.34375 1.04844 0
0.275 1.04375 0
0.410156 0.987305 0
0.341797 0.98291 0
0.273438 0.978516 0
0.407813 0.921484 0
0.339844 0.917383 0
0.271875 0.913281 0
0.54375 0.929688 0
0.475781 0.925586 0
0.407813 0.921484 0
0.540625 0.863281 0
0.473047 0.859473 0
0.405469 0.855664 0
0.5375 0.796875 0
0.470313 0.793359 0
0.403125 0.789844 0
0.407813 0.921484 0
0.339844 0.917383 0
0.271875 0.913281 0
0.405469 0.855664 0
0.337891 0.851855 0
0.270313 0.848047 0
0.403125 0.789844 0
0.335938 0.786328 0
0.26875 0.782813 0
0.275 1.04375 0
0.20625 1.03906 0
0.1375 1.03437 0
0.273438 0.978516 0
0.205078 0.974121 0
0.136719 0.969727 0
0.271875 0.913281 0
0.203906 0.90918 0
0.135938 0.905078 0
0.1375 1.03437 0
0.06875 1.02969 0
0 1.025 0
0.136719 0.969727 0
0.0683594 0.965332 0
0 0.960937 0
0.135938 0.905078 0
0.0679688 0.900977 0
0 0.896875 0
0.271875 0.913281 0
0.203906 0.90918 0
0.135938 0.905078 0
0.270313 0.848047 0
0.202734 0.844238 0
0.135156 0.84043 0
0.26875 0.782813 0
0.201563 0.779297 0
0.134375 0.775781 0
0.135938 0.905078 0
0.0679688 0.900977 0
0 0.896875 0
0.135156 0.84043 0
0.0675781 0.836621 0
0 0.832812 0
0.134375 0.775781 0
0.0671875 0.772266 0
0 0.76875 0
0.5375 0.796875 0
0.470313 0.793359 0
0.403125 0.789844 0
0.534375 0.730469 0
0.467578 0.727246 0
0.400781 0.724023 0
0.53125 0.664062 0
0.464844 0.661133 0
0.398438 0.658203 0
0.403125 0.789844 0
0.335938 0.786328 0
0.26875 0.782813 0
0.400781 0.724023 0
0.333984 0.720801 0
0.267188 0.717578 0
0.398438 0.658203 0
0.332031 0.655273 0
0.265625 0.652344 0
0.53125 0.664062 0
0.464844 0.661133 0
0.398438 0.658203 0
0.528125 0.597656 0
0.462109 0.59502 0
0.396094 0.592383 0
0.525 0.53125 0
0.459375 0.528906 0
0.39375 0.526563 0
0.398438 0.658203 0
0.332031 0.655273 0
0.265625 0.652344 0
0.396094 0.592383 0
0.330078 0.589746 0
0.264062 0.587109 0
0.39375 0.526563 0
0.328125 0.524219 0
0.2625 0.521875 0
0.26875 0.782813 0
0.201563 0.779297 0
0.134375 0.775781 0
0.267188 0.717578 0
0.200391 0.714355 0
0.133594 0.711133 0
0.265625 0.652344 0
0.199219 0.649414 0
0.132812 0.646484 0
0.134375 0.775781 0
0.0671875 0.772266 0
0 0.76875 0
0.133594 0.711133 0
0.0667969 0.70791 0
0 0.704687 0
0.132812 0.646484 0
0.0664062 0.643555 0
0 0.640625 0
0.265625 0.652344 0
0.199219 0.649414 0
0.132812 0.646484 0
0.264062 0.587109 0
0.198047 0.584473 0
0.132031 0.581836 0
0.2625 0.521875 0
0.196875 0.519531 0
0.13125 0.517187 0
0.132812 0.646484 0
0.0664062 0.643555 0
0 0.640625 0
0.132031 0.581836 0
0.0660156 0.579199 0
0 0.576562 0
0.13125 0.517187 0
0.065625 0.514844 0
0 0.5125 0
1.05 0.55 0
0.984375 0.547656 0
0.91875 0.545313 0
1.04375 0.48125 0
0.978516 0.479199 0
0.913281 0.477148 0
1.0375 0.4125 0
0.972656 0.410742 0
0.907813 0.408984 0
0.91875 0.545313 0
0.853125 0.542969 0
0.7875 0.540625 0
0.913281 0.477148 0
0.848047 0.475098 0
0.782813 0.473047 0
0.907813 0.408984 0
0.842969 0.407227 0
0.778125 0.405469 0
1.0375 0.4125 0
0.972656 0.410742 0
0.907813 0.408984 0
1.03125 0.34375 0
0.966797 0.342285 0
0.902344 0.34082 0
1.025 0.275 0
0.960937 0.273828 0
0.896875 0.272656 0
0.907813 0.408984 0
0.842969 0.407227 0
0.778125 0.405469 0
0.902344 0.34082 0
0.837891 0.339355 0
0.773438 0.337891 0
0.896875 0.272656 0
0.832812 0.271484 0
0.76875 0.270313 0
0.7875 0.540625 0
0.721875 0.538281 0
0.65625 0.535937 0
0.782813 0.473047 0
0.717578 0.470996 0
0.652344 0.468945 0
0.778125 0.405469 0
0.713281 0.403711 0
0.648438 0.401953 0
0.65625 0.535937 0
0.590625 0.533594 0
0.525 0.53125 0
0.652344 0.468945 0
0.587109 0.466895 0
0.521875 0.464844 0
0.648438 0.401953 0
0.583594 0.400195 0
0.51875 0.398438 0
0.778125 0.405469 0
0.713281 0.403711 0
0.648438 0.401953 0
0.773438 0.337891 0
0.708984 0.336426 0
0.644531 0.334961 0
0.76875 0.270313 0
0.704687 0.269141 0
0.640625 0.267969 0
0.648438 0.401953 0
0.583594 0.400195 0
0.51875 0.398438 0
0.644531 0.334961 0
0.580078 0.333496 0
0.515625 0.332031 0
0.640625 0.267969 0
0.576562 0.266797 0
0.5125 0.265625 0
1.025 0.275 0
0.960937 0.273828 0
0.896875 0.272656 0
1.01875 0.20625 0
0.955078 0.205371 0
0.891406 0.204492 0
1.0125 0.1375 0
0.949219 0.136914 0
0.885937 0.136328 0
0.896875 0.272656 0
0.832812 0.271484 0
0.76875 0.270313 0
0.891406 0.204492 0
0.827734 0.203613 0
0.764062 0.202734 0
0.885937 0.136328 0
0.822656 0.135742 0
0.759375 0.135156 0
1.0125 0.1375 0
0.949219 0.136914 0
0.885937 0.136328 0
1.00625 0.06875 0
0.943359 0.068457 0
0.880469 0.0681641 0
1 0 0
0.9375 0 0
0.875 0 0
0.885937 0.136328 0
0.822656 0.135742 0
0.759375 0.135156 0
0.880469 0.0681641 0
0.817578 0.0678711 0
0.754687 0.0675781 0
0.875 0 0
0.8125 0 0
0.75 0 0
0.76875 0.270313 0
0.704687 0.269141 0
0.640625 0.267969 0
0.764062 0.202734 0
0.700391 0.201855 0
0.636719 0.200977 0
0.759375 0.135156 0
0.696094 0.13457 0
0.632812 0.133984 0
0.640625 0.267969 0
0.576562 0.266797 0
0.5125 0.265625 0
0.636719 0.200977 0
0.573047 0.200098 0
0.509375 0.199219 0
0.632812 0.133984 0
0.569531 0.133398 0
0.50625 0.132812 0
0.759375 0.135156 0
0.696094 0.13457 0
0.632812 0.133984 0
0.754687 0.0675781 0
0.691797 0.0672852 0
0.628906 0.0669922 0
0.75 0 0
0.6875 0 0
0.625 0 0
0.632812 0.133984 0
0.569531 0.133398 0
0.50625 0.132812 0
0.628906 0.0669922 0
0.566016 0.0666992 0
0.503125 0.0664062 0
0.625 0 0
0.5625 0 0
0.5 0 0
0.525 0.53125 0
0.459375 0.528906 0
0.39375 0.526563 0
0.521875 0.464844 0
0.456641 0.462793 0
0.391406 0.460742 0
0.51875 0.398438 0
0.453906 0.39668 0
0.389063 0.394922 0
0.39375 0.526563 0
0.328125 0.524219 0
0.2625 0.521875 0
0.391406 0.460742 0
0.326172 0.458691 0
0.260938 0.456641 0
0.389063 0.394922 0
0.324219 0.393164 0
0.259375 0.391406 0
0.51875 0.398438 0
0.453906 0.39668 0
0.389063 0.394922 0
0.515625 0.332031 0
0.451172 0.330566 0
0.386719 0.329102 0
0.5125 0.265625 0
0.448437 0.264453 0
0.384375 0.263281 0
0.389063 0.394922 0
0.324219 0.393164 0
0.259375 0.391406 0
0.386719 0.329102 0
0.322266 0.327637 0
0.257812 0.326172 0
0.384375 0.263281 0
0.320312 0.262109 0
0.25625 0.260937 0
0.2625 0.521875 0
0.196875 0.519531 0
0.13125 0.517187 0
0.260938 0.456641 0
0.195703 0.45459 0
0.130469 0.452539 0
0.259375 0.391406 0
0.194531 0.389648 0
0.129688 0.387891 0
0.13125 0.517187 0
0.065625 0.514844 0
0 0.5125 0
0.130469 0.452539 0
0.0652344 0.450488 0
0 0.448437 0
0.129688 0.387891 0
0.0648438 0.386133 0
0 0.384375 0
0.259375 0.391406 0
0.194531 0.389648 0
0.129688 0.387891 0
0.257812 0.326172 0
0.193359 0.324707 0
0.128906 0.323242 0
0.25625 0.260937 0
0.192187 0.259766 0
0.128125 0.258594 0
0.129688 0.387891 0
0.0648438 0.386133 0
0 0.384375 0
0.128906 0.323242 0
0.0644531 0.321777 0
0 0.320312 0
0.128125 0.258594 0
0.0640625 0.257422 0
0 0.25625 0
0.5125 0.265625 0
0.448437 0.264453 0
0.384375 0.263281 0
0.509375 0.199219 0
0.445703 0.19834 0
0.382031 0.197461 0
0.50625 0.132812 0
0.442969 0.132227 0
0.379688 0.131641 0
0.384375 0.263281 0
0.320312 0.262109 0
0.25625 0.260937 0
0.382031 0.197461 0
0.318359 0.196582 0
0.254687 0.195703 0
[...]
POINT_DATA 34560
VECTORS v double
1.20076 -0.247758 0
1.1907 -0.218626 0
1.18238 -0.192621 0
1.16997 -0.235078 0
1.15768 -0.209016 0
1.14762 -0.184881 0
1.13437 -0.221408 0
1.12057 -0.197609 0
1.10866 -0.175386 0
1.18238 -0.192621 0
1.17528 -0.168436 0
1.16959 -0.146729 0
1.14762 -0.184881 0
1.13846 -0.162515 0
1.13115 -0.142117 0
1.10866 -0.175386 0
1.09794 -0.154727 0
1.0889 -0.135685 0
1.13437 -0.221408 0
1.12057 -0.197609 0
1.10866 -0.175386 0
1.09271 -0.205199 0
1.07745 -0.183875 0
1.06415 -0.163833 0
1.04495 -0.189034 0
1.0288 -0.169957 0
1.01449 -0.151882 0
1.10866 -0.175386 0
1.09794 -0.154727 0
1.0889 -0.135685 0
1.06415 -0.163833 0
1.05208 -0.145059 0
1.04173 -0.12765 0
1.01449 -0.151882 0
1.00149 -0.134848 0
0.99015 -0.118946 0
1.16959 -0.146729 0
1.16431 -0.126896 0
1.16007 -0.109095 0
1.13115 -0.142117 0
1.12411 -0.123387 0
1.11848 -0.106438 0
1.0889 -0.135685 0
1.08044 -0.118159 0
1.07336 -0.102161 0
1.16007 -0.109095 0
1.15584 -0.0929795 0
1.15229 -0.0785228 0
1.11848 -0.106438 0
1.11283 -0.0909875 0
1.10816 -0.0770534 0
1.07336 -0.102161 0
1.06651 -0.0875373 0
1.06071 -0.074261 0
1.0889 -0.135685 0
1.08044 -0.118159 0
1.07336 -0.102161 0
1.04173 -0.12765 0
1.03211 -0.111506 0
1.02388 -0.0966887 0
0.99015 -0.118946 0
0.979644 -0.104131 0
0.97052 -0.0904578 0
1.07336 -0.102161 0
1.06651 -0.0875373 0
1.06071 -0.074261 0
1.02388 -0.0966887 0
1.01608 -0.0830625 0
1.00936 -0.0706274 0
0.97052 -0.0904578 0
0.961968 -0.0778359 0
0.954514 -0.0662669 0
1.04495 -0.189034 0
1.0288 -0.169957 0
1.01449 -0.151882 0
0.991806 -0.171983 0
0.975007 -0.155061 0
0.959979 -0.138928 0
0.933832 -0.154961 0
0.916603 -0.140013 0
0.901039 -0.125681 0
1.01449 -0.151882 0
1.00149 -0.134848 0
0.99015 -0.118946 0
0.959979 -0.138928 0
0.946265 -0.123632 0
0.934153 -0.10928 0
0.901039 -0.125681 0
0.886798 -0.112037 0
0.874097 -0.0991753 0
0.933832 -0.154961 0
0.916603 -0.140013 0
0.901039 -0.125681 0
0.870878 -0.137033 0
0.853349 -0.124035 0
0.837439 -0.111525 0
0.80322 -0.119466 0
0.785586 -0.108276 0
0.769496 -0.0974616 0
0.901039 -0.125681 0
0.886798 -0.112037 0
0.874097 -0.0991753 0
0.837439 -0.111525 0
0.822838 -0.0995647 0
0.809741 -0.0882467 0
0.769496 -0.0974616 0
0.754707 -0.0870877 0
0.741372 -0.0772377 0
0.99015 -0.118946 0
0.979644 -0.104131 0
0.97052 -0.0904578 0
0.934153 -0.10928 0
0.922966 -0.0958507 0
0.913137 -0.0834007 0
0.874097 -0.0991753 0
0.862395 -0.0870978 0
0.852024 -0.075858 0
0.97052 -0.0904578 0
0.961968 -0.0778359 0
0.954514 -0.0662669 0
0.913137 -0.0834007 0
0.904003 -0.0718678 0
0.895974 -0.0612604 0
0.852024 -0.075858 0
0.842449 -0.0654205 0
0.833979 -0.0557943 0
0.874097 -0.0991753 0
0.862395 -0.0870978 0
0.852024 -0.075858 0
0.809741 -0.0882467 0
0.797689 -0.07758 0
0.78695 -0.0676211 0
0.741372 -0.0772377 0
0.72912 -0.0679322 0
0.718158 -0.0592218 0
0.852024 -0.075858 0
0.842449 -0.0654205 0
0.833979 -0.0557943 0
0.78695 -0.0676211 0
0.777083 -0.0583488 0
0.768324 -0.0497795 0
0.718158 -0.0592218 0
0.70813 -0.0511015 0
0.699209 -0.0435864 0
1.15229 -0.0785228 0
1.1486 -0.0654663 0
1.14532 -0.0537143 0
1.10816 -0.0770534 0
1.10339 -0.0643926 0
1.09928 -0.0529473 0
1.06071 -0.074261 0
1.05501 -0.0621598 0
1.05006 -0.0511705 0
1.14532 -0.0537143 0
1.14185 -0.0430343 0
1.13859 -0.0333079 0
1.09928 -0.0529473 0
1.09504 -0.0425009 0
1.09122 -0.032952 0
1.05006 -0.0511705 0
1.04517 -0.0411114 0
1.0408 -0.0318862 0
1.06071 -0.074261 0
1.05501 -0.0621598 0
1.05006 -0.0511705 0
1.00936 -0.0706274 0
1.00293 -0.0592392 0
0.99731 -0.0488556 0
0.954514 -0.0662669 0
0.947494 -0.0556428 0
0.941326 -0.0459239 0
1.05006 -0.0511705 0
1.04517 -0.0411114 0
1.0408 -0.0318862 0
0.99731 -0.0488556 0
0.991918 -0.0393187 0
0.987125 -0.0305429 0
0.941326 -0.0459239 0
0.935527 -0.0369798 0
0.930387 -0.0287333 0
1.13859 -0.0333079 0
1.13518 -0.0242969 0
1.13186 -0.0158737 0
1.09122 -0.032952 0
1.08735 -0.0240866 0
1.08374 -0.0157748 0
1.0408 -0.0318862 0
1.03654 -0.023301 0
1.03265 -0.015243 0
1.13186 -0.0158737 0
1.12842 -0.00779933 0
1.125 0 0
1.08374 -0.0157748 0
1.08011 -0.00779316 0
1.07666 0 0
1.03265 -0.015243 0
1.02888 -0.00750371 0
1.02539 0 0
1.0408 -0.0318862 0
1.03654 -0.023301 0
1.03265 -0.015243 0
0.987125 -0.0305429 0
0.982574 -0.0223546 0
0.97849 -0.0146559 0
0.930387 -0.0287333 0
0.925612 -0.0210317 0
0.921373 -0.0137826 0
1.03265 -0.015243 0
1.02888 -0.00750371 0
1.02539 0 0
0.97849 -0.0146559 0
0.974651 -0.00724519 0
0.971191 0 0
0.921373 -0.0137826 0
0.917489 -0.00680019 0
0.914062 0 0
0.954514 -0.0662669 0
0.947494 -0.0556428 0
0.941326 -0.0459239 0
0.895974 -0.0612604 0
0.888503 -0.0514932 0
0.881915 -0.0425359 0
0.833979 -0.0557943 0
0.826173 -0.0469178 0
0.819272 -0.038764 0
0.941326 -0.0459239 0
0.935527 -0.0369798 0
0.930387 -0.0287333 0
0.881915 -0.0425359 0
0.875819 -0.0342784 0
0.870431 -0.0266553 0
0.819272 -0.038764 0
0.812967 -0.0312441 0
0.807409 -0.024299 0
0.833979 -0.0557943 0
0.826173 -0.0469178 0
0.819272 -0.038764 0
0.768324 -0.0497795 0
0.760312 -0.0418663 0
0.753224 -0.0345905 0
0.699209 -0.0435864 0
0.691101 -0.0366465 0
0.683932 -0.0302654 0
0.819272 -0.038764 0
0.812967 -0.0312441 0
0.807409 -0.024299 0
0.753224 -0.0345905 0
0.746813 -0.0278778 0
0.741182 -0.0216805 0
0.683932 -0.0302654 0
0.677504 -0.0243856 0
0.671877 -0.0189647 0
0.930387 -0.0287333 0
0.925612 -0.0210317 0
0.921373 -0.0137826 0
0.870431 -0.0266553 0
0.865514 -0.0195277 0
0.861195 -0.0128126 0
0.807409 -0.024299 0
0.802411 -0.0178064 0
0.798061 -0.0116889 0
0.921373 -0.0137826 0
0.917489 -0.00680019 0
0.914062 0 0
0.861195 -0.0128126 0
0.857336 -0.00633485 0
0.854004 0 0
0.798061 -0.0116889 0
0.794248 -0.00578273 0
0.791016 0 0
0.807409 -0.024299 0
0.802411 -0.0178064 0
0.798061 -0.0116889 0
0.741182 -0.0216805 0
0.736183 -0.0158883 0
0.731871 -0.0104329 0
0.671877 -0.0189647 0
0.66694 -0.013907 0
0.662719 -0.00914845 0
0.798061 -0.0116889 0
0.794248 -0.00578273 0
0.791016 0 0
0.731871 -0.0104329 0
0.728168 -0.00516093 0
0.725098 0 0
0.662719 -0.00914845 0
0.659154 -0.00454546 0
0.65625 0 0
0.80322 -0.119466 0
0.785586 -0.108276 0
0.769496 -0.0974616 0
0.731085 -0.101326 0
0.713411 -0.0918911 0
0.697246 -0.0827524 0
0.654439 -0.0835565 0
0.636851 -0.0757932 0
0.620724 -0.0682593 0
0.769496 -0.0974616 0
0.754707 -0.0870877 0
0.741372 -0.0772377 0
0.697246 -0.0827524 0
0.682363 -0.0739653 0
0.668911 -0.0656062 0
0.620724 -0.0682593 0
0.605875 -0.0610041 0
0.592432 -0.054094 0
0.654439 -0.0835565 0
0.636851 -0.0757932 0
0.620724 -0.0682593 0
0.572958 -0.0653144 0
0.555552 -0.0591958 0
0.539599 -0.0532619 0
0.48505 -0.0476859 0
0.468203 -0.0431643 0
0.452776 -0.0387878 0
0.620724 -0.0682593 0
0.605875 -0.0610041 0
0.592432 -0.054094 0
0.539599 -0.0532619 0
0.524918 -0.0475486 0
0.511636 -0.0421116 0
0.452776 -0.0387878 0
0.438611 -0.034579 0
0.425821 -0.0305837 0
0.741372 -0.0772377 0
0.72912 -0.0679322 0
0.718158 -0.0592218 0
0.668911 -0.0656062 0
0.65657 -0.0576964 0
0.645512 -0.0502817 0
0.592432 -0.054094 0
0.580131 -0.0475504 0
0.569105 -0.0414126 0
0.718158 -0.0592218 0
0.70813 -0.0511015 0
0.699209 -0.0435864 0
0.645512 -0.0502817 0
0.635439 -0.0433627 0
0.62648 -0.0369563 0
0.569105 -0.0414126 0
0.559112 -0.0356858 0
0.550237 -0.0303846 0
0.592432 -0.054094 0
0.580131 -0.0475504 0
0.569105 -0.0414126 0
0.511636 -0.0421116 0
0.499521 -0.036967 0
0.488684 -0.0321469 0
0.425821 -0.0305837 0
0.414204 -0.0268107 0
0.403846 -0.023285 0
0.569105 -0.0414126 0
0.559112 -0.0356858 0
0.550237 -0.0303846 0
0.488684 -0.0321469 0
0.478915 -0.0276551 0
0.470274 -0.0235035 0
0.403846 -0.023285 0
0.394566 -0.0200074 0
0.386399 -0.0169867 0
0.48505 -0.0476859 0
0.468203 -0.0431643 0
0.452776 -0.0387878 0
0.387876 -0.0304395 0
0.372301 -0.0274595 0
0.358112 -0.0245925 0
0.276784 -0.0154114 0
0.264008 -0.013871 0
0.252445 -0.0124011 0
0.452776 -0.0387878 0
0.438611 -0.034579 0
0.425821 -0.0305837 0
0.358112 -0.0245925 0
0.345132 -0.0218489 0
0.333472 -0.0192606 0
0.252445 -0.0124011 0
0.241931 -0.0109942 0
0.23255 -0.00967738 0
0.276784 -0.0154114 0
0.264008 -0.013871 0
0.252445 -0.0124011 0
0.147469 -0.0043024 0
0.139805 -0.00384255 0
0.132964 -0.00341596 0
0 0 0
0 0 0
0 0 0
0.252445 -0.0124011 0
0.241931 -0.0109942 0
0.23255 -0.00967738 0
0.132964 -0.00341596 0
0.126761 -0.00300356 0
0.121293 -0.00262801 0
0 0 0
0 0 0
0 0 0
0.425821 -0.0305837 0
0.414204 -0.0268107 0
0.403846 -0.023285 0
0.333472 -0.0192606 0
0.322937 -0.0168296 0
0.313596 -0.0145717 0
0.23255 -0.00967738 0
0.224128 -0.00844422 0
0.216709 -0.00730781 0
0.403846 -0.023285 0
0.394566 -0.0200074 0
0.386399 -0.0169867 0
0.313596 -0.0145717 0
0.305281 -0.0124841 0
0.298009 -0.0105717 0
0.216709 -0.00730781 0
0.210148 -0.00626092 0
0.204445 -0.00530923 0
0.23255 -0.00967738 0
0.224128 -0.00844422 0
0.216709 -0.00730781 0
0.121293 -0.00262801 0
0.116401 -0.00227597 0
0.112134 -0.00196001 0
0 0 0
0 0 0
0 0 0
0.216709 -0.00730781 0
0.210148 -0.00626092 0
0.204445 -0.00530923 0
0.112134 -0.00196001 0
0.10837 -0.00166854 0
0.105118 -0.00141014 0
0 0 0
0 0 0
0 0 0
0.699209 -0.0435864 0
0.691101 -0.0366465 0
0.683932 -0.0302654 0
0.62648 -0.0369563 0
0.618391 -0.0310412 0
0.611253 -0.0256067 0
0.550237 -0.0303846 0
0.54228 -0.0254961 0
0.535284 -0.0210118 0
0.683932 -0.0302654 0
0.677504 -0.0243856 0
0.671877 -0.0189647 0
0.611253 -0.0256067 0
0.604907 -0.0206062 0
0.59938 -0.0160069 0
0.535284 -0.0210118 0
0.529117 -0.0168974 0
0.523778 -0.0131253 0
0.550237 -0.0303846 0
0.54228 -0.0254961 0
0.535284 -0.0210118 0
0.470274 -0.0235035 0
0.462586 -0.0196814 0
0.455868 -0.0161829 0
0.386399 -0.0169867 0
0.379191 -0.0142127 0
0.37294 -0.0116801 0
0.535284 -0.0210118 0
0.529117 -0.0168974 0
0.523778 -0.0131253 0
0.455868 -0.0161829 0
0.450001 -0.0129809 0
0.444964 -0.0100558 0
0.37294 -0.0116801 0
0.367534 -0.00936792 0
0.362939 -0.00726283 0
0.671877 -0.0189647 0
0.66694 -0.013907 0
0.662719 -0.00914845 0
0.59938 -0.0160069 0
0.594581 -0.0117249 0
0.59052 -0.00770556 0
0.523778 -0.0131253 0
0.519189 -0.00962633 0
0.515345 -0.00635148 0
0.662719 -0.00914845 0
0.659154 -0.00454546 0
0.65625 0 0
0.59052 -0.00770556 0
0.58715 -0.0038157 0
0.584473 0 0
0.515345 -0.00635148 0
0.512206 -0.00318087 0
0.509766 0 0
0.523778 -0.0131253 0
0.519189 -0.00962633 0
0.515345 -0.00635148 0
0.444964 -0.0100558 0
0.440678 -0.00735117 0
0.437127 -0.00483392 0
0.362939 -0.00726283 0
0.35907 -0.00532404 0
0.355902 -0.00352334 0
0.515345 -0.00635148 0
0.512206 -0.00318087 0
0.509766 0 0
0.437127 -0.00483392 0
0.434279 -0.00239871 0
0.432129 0 0
0.355902 -0.00352334 0
0.3534 -0.00178805 0
0.351562 0 0
0.386399 -0.0169867 0
0.379191 -0.0142127 0
0.37294 -0.0116801 0
0.298009 -0.0105717 0
0.291645 -0.00882363 0
0.286167 -0.00723395 0
0.204445 -0.00530923 0
0.199487 -0.00444241 0
0.195246 -0.00365749 0
0.37294 -0.0116801 0
0.367534 -0.00936792 0
0.362939 -0.00726283 0
0.286167 -0.00723395 0
0.281478 -0.00578471 0
0.277534 -0.00446884 0
0.195246 -0.00365749 0
0.191642 -0.00294138 0
0.188635 -0.0022933 0
0.204445 -0.00530923 0
0.199487 -0.00444241 0
0.195246 -0.00365749 0
0.105118 -0.00141014 0
0.102297 -0.00117496 0
0.0998893 -0.000965535 0
0 0 0
0 0 0
0 0 0
0.195246 -0.00365749 0
0.191642 -0.00294138 0
0.188635 -0.0022933 0
0.0998893 -0.000965535 0
0.0978447 -0.000771192 0
0.0961358 -0.000598701 0
0 0 0
0 0 0
0 0 0
0.362939 -0.00726283 0
0.35907 -0.00532404 0
0.355902 -0.00352334 0
0.277534 -0.00446884 0
0.274253 -0.00325424 0
0.271605 -0.00212819 0
0.188635 -0.0022933 0
0.186165 -0.00169392 0
0.184201 -0.0011282 0
0.355902 -0.00352334 0
0.3534 -0.00178805 0
0.351562 0 0
0.271605 -0.00212819 0
0.269541 -0.00103864 0
0.268066 0 0
0.184201 -0.0011282 0
0.182692 -0.000583701 0
0.181641 0 0
0.188635 -0.0022933 0
0.186165 -0.00169392 0
0.184201 -0.0011282 0
0.0961358 -0.000598701 0
0.0947361 -0.000438732 0
0.0936507 -0.000283273 0
0 0 0
0 0 0
0 0 0
0.184201 -0.0011282 0
0.182692 -0.000583701 0
0.181641 0 0
0.0936507 -0.000283273 0
0.0928174 -0.000110606 0
0.0922852 0 0
0 0 0
0 0 0
0 0 0
1.63111 -0.484423 0
1.59138 -0.494826 0
1.55032 -0.500414 0
1.57931 -0.435537 0
1.54226 -0.445448 0
1.50416 -0.451118 0
1.52185 -0.391131 0
1.48829 -0.400491 0
1.45371 -0.40622 0
1.55032 -0.500414 0
1.50962 -0.50085 0
1.46873 -0.496465 0
1.50416 -0.451118 0
1.46654 -0.452448 0
1.42879 -0.449541 0
1.45371 -0.40622 0
1.41959 -0.408381 0
1.38526 -0.406832 0
1.52185 -0.391131 0
1.48829 -0.400491 0
1.45371 -0.40622 0
1.46559 -0.352042 0
1.43464 -0.359886 0
1.40283 -0.364729 0
1.40553 -0.313724 0
1.37596 -0.320769 0
1.34572 -0.325246 0
1.45371 -0.40622 0
1.41959 -0.408381 0
1.38526 -0.406832 0
1.40283 -0.364729 0
1.37127 -0.366559 0
1.33947 -0.365299 0
1.34572 -0.325246 0
1.31577 -0.327193 0
1.28569 -0.32651 0
1.46873 -0.496465 0
1.43099 -0.487633 0
1.39376 -0.47422 0
1.42879 -0.449541 0
1.39368 -0.442771 0
1.35914 -0.43243 0
1.38526 -0.406832 0
1.35299 -0.401956 0
1.32137 -0.393791 0
1.39376 -0.47422 0
1.36088 -0.457558 0
1.32963 -0.43774 0
1.35914 -0.43243 0
1.32817 -0.418974 0
1.29871 -0.402781 0
1.32137 -0.393791 0
1.29258 -0.382798 0
1.26504 -0.369229 0
1.38526 -0.406832 0
1.35299 -0.401956 0
1.32137 -0.393791 0
1.33947 -0.365299 0
1.30922 -0.361171 0
1.27942 -0.35428 0
1.28569 -0.32651 0
1.25691 -0.323395 0
1.22863 -0.317908 0
1.32137 -0.393791 0
1.29258 -0.382798 0
1.26504 -0.369229 0
1.27942 -0.35428 0
1.25187 -0.345073 0
1.22536 -0.333658 0
1.22863 -0.317908 0
1.20225 -0.310365 0
1.17691 -0.300872 0
1.40553 -0.313724 0
1.37596 -0.320769 0
1.34572 -0.325246 0
1.34127 -0.278579 0
1.31315 -0.285092 0
1.28446 -0.289332 0
1.2757 -0.244711 0
1.24879 -0.250741 0
1.22133 -0.254792 0
1.34572 -0.325246 0
1.31577 -0.327193 0
1.28569 -0.32651 0
1.28446 -0.289332 0
1.25609 -0.291333 0
1.22763 -0.291039 0
1.22133 -0.254792 0
1.19417 -0.256898 0
1.16693 -0.257 0
1.2757 -0.244711 0
1.24879 -0.250741 0
1.22133 -0.254792 0
1.20829 -0.212367 0
1.18222 -0.217776 0
1.15565 -0.221472 0
1.1379 -0.181065 0
1.11241 -0.186003 0
1.08644 -0.189472 0
1.22133 -0.254792 0
1.19417 -0.256898 0
1.16693 -0.257 0
1.15565 -0.221472 0
1.12933 -0.223499 0
1.10292 -0.223803 0
1.08644 -0.189472 0
1.06072 -0.191515 0
1.03493 -0.19208 0
1.28569 -0.32651 0
1.25691 -0.323395 0
1.22863 -0.317908 0
1.22763 -0.291039 0
1.20032 -0.288607 0
1.17347 -0.284087 0
1.16693 -0.257 0
1.14065 -0.255235 0
1.11477 -0.251634 0
1.22863 -0.317908 0
1.20225 -0.310365 0
1.17691 -0.300872 0
1.17347 -0.284087 0
1.14823 -0.277748 0
1.12393 -0.269671 0
1.11477 -0.251634 0
1.09028 -0.246423 0
1.06664 -0.239668 0
1.16693 -0.257 0
1.14065 -0.255235 0
1.11477 -0.251634 0
1.10292 -0.223803 0
1.07734 -0.222511 0
1.05215 -0.219636 0
1.03493 -0.19208 0
1.00988 -0.191275 0
0.985192 -0.189103 0
1.11477 -0.251634 0
1.09028 -0.246423 0
1.06664 -0.239668 0
1.05215 -0.219636 0
1.02816 -0.215373 0
1.00496 -0.209759 0
0.985192 -0.189103 0
0.961576 -0.185721 0
0.938718 -0.18116 0
1.32963 -0.43774 0
1.30306 -0.416278 0
1.27897 -0.392678 0
1.29871 -0.402781 0
1.27332 -0.384478 0
1.25013 -0.364574 0
1.26504 -0.369229 0
1.24073 -0.353741 0
1.21827 -0.336605 0
1.27897 -0.392678 0
1.25883 -0.368632 0
1.24128 -0.34382 0
1.25013 -0.364574 0
1.23037 -0.343757 0
1.21302 -0.322073 0
1.21827 -0.336605 0
1.19868 -0.318362 0
1.18118 -0.299207 0
1.26504 -0.369229 0
1.24073 -0.353741 0
1.21827 -0.336605 0
1.22536 -0.333658 0
1.20157 -0.320537 0
1.17937 -0.305882 0
1.17691 -0.300872 0
1.1539 -0.289812 0
1.13239 -0.277359 0
1.21827 -0.336605 0
1.19868 -0.318362 0
1.18118 -0.299207 0
1.17937 -0.305882 0
1.15972 -0.290203 0
1.14199 -0.273674 0
1.13239 -0.277359 0
1.11311 -0.263908 0
1.09559 -0.249599 0
1.24128 -0.34382 0
1.22729 -0.3192 0
1.21609 -0.294511 0
1.21302 -0.322073 0
1.19878 -0.300079 0
1.18701 -0.278072 0
1.18118 -0.299207 0
1.16632 -0.279681 0
1.15364 -0.259984 0
1.21609 -0.294511 0
1.20728 -0.270669 0
1.20076 -0.247758 0
1.18701 -0.278072 0
1.17734 -0.256404 0
1.16997 -0.235078 0
1.15364 -0.259984 0
1.14297 -0.240478 0
1.13437 -0.221408 0
1.18118 -0.299207 0
1.16632 -0.279681 0
1.15364 -0.259984 0
1.14199 -0.273674 0
1.1267 -0.256723 0
1.11345 -0.239482 0
1.09559 -0.249599 0
1.08024 -0.23477 0
1.06675 -0.219578 0
1.15364 -0.259984 0
1.14297 -0.240478 0
1.13437 -0.221408 0
1.11345 -0.239482 0
1.10211 -0.222261 0
1.09271 -0.205199 0
1.06675 -0.219578 0
1.05496 -0.20428 0
1.04495 -0.189034 0
1.17691 -0.300872 0
1.1539 -0.289812 0
1.13239 -0.277359 0
1.12393 -0.269671 0
1.10161 -0.260198 0
1.08063 -0.249458 0
1.06664 -0.239668 0
1.04471 -0.231651 0
1.02401 -0.222486 0
1.13239 -0.277359 0
1.11311 -0.263908 0
1.09559 -0.249599 0
1.08063 -0.249458 0
1.06158 -0.237787 0
1.0441 -0.225299 0
1.02401 -0.222486 0
1.00503 -0.212453 0
0.987511 -0.20166 0
1.06664 -0.239668 0
1.04471 -0.231651 0
1.02401 -0.222486 0
1.00496 -0.209759 0
0.983277 -0.203038 0
0.962748 -0.195289 0
0.938718 -0.18116 0
0.917197 -0.175615 0
0.896763 -0.169157 0
1.02401 -0.222486 0
1.00503 -0.212453 0
0.987511 -0.20166 0
0.962748 -0.195289 0
0.943762 -0.186754 0
0.926155 -0.177517 0
0.896763 -0.169157 0
0.877719 -0.161982 0
0.859975 -0.154164 0
1.09559 -0.249599 0
1.08024 -0.23477 0
1.06675 -0.219578 0
1.0441 -0.225299 0
1.02854 -0.212307 0
1.01469 -0.198959 0
0.987511 -0.20166 0
0.971749 -0.190371 0
0.957592 -0.178716 0
1.06675 -0.219578 0
1.05496 -0.20428 0
1.04495 -0.189034 0
1.01469 -0.198959 0
1.00241 -0.185489 0
0.991806 -0.171983 0
0.957592 -0.178716 0
0.94492 -0.166879 0
0.933832 -0.154961 0
0.987511 -0.20166 0
0.971749 -0.190371 0
0.957592 -0.178716 0
0.926155 -0.177517 0
0.91014 -0.167801 0
0.895632 -0.157714 0
0.859975 -0.154164 0
0.843689 -0.145891 0
0.828836 -0.137264 0
0.957592 -0.178716 0
0.94492 -0.166879 0
0.933832 -0.154961 0
0.895632 -0.157714 0
0.882509 -0.147427 0
0.870878 -0.137033 0
0.828836 -0.137264 0
0.815304 -0.128428 0
0.80322 -0.119466 0
1.1379 -0.181065 0
1.11241 -0.186003 0
1.08644 -0.189472 0
1.06535 -0.151403 0
1.0403 -0.155818 0
1.0148 -0.158974 0
0.98968 -0.122291 0
0.964991 -0.126246 0
0.939808 -0.12914 0
1.08644 -0.189472 0
1.06072 -0.191515 0
1.03493 -0.19208 0
1.0148 -0.158974 0
0.989511 -0.160908 0
0.96415 -0.161576 0
0.939808 -0.12914 0
0.914803 -0.131008 0
0.889703 -0.131812 0
0.98968 -0.122291 0
0.964991 -0.126246 0
0.939808 -0.12914 0
0.908309 -0.0942006 0
0.884147 -0.0976104 0
0.859437 -0.100152 0
0.814242 -0.0672008 0
0.791193 -0.0700194 0
0.767459 -0.0721681 0
0.939808 -0.12914 0
0.914803 -0.131008 0
0.889703 -0.131812 0
0.859437 -0.100152 0
0.83482 -0.101855 0
0.810055 -0.102689 0
0.767459 -0.0721681 0
0.743711 -0.073673 0
0.719718 -0.0745037 0
1.03493 -0.19208 0
1.00988 -0.191275 0
0.985192 -0.189103 0
0.96415 -0.161576 0
0.939435 -0.161071 0
0.915059 -0.159397 0
0.889703 -0.131812 0
0.865166 -0.131632 0
0.840936 -0.130467 0
0.985192 -0.189103 0
0.961576 -0.185721 0
0.938718 -0.18116 0
0.915059 -0.159397 0
0.891627 -0.15669 0
0.868903 -0.152971 0
0.840936 -0.130467 0
0.817551 -0.12843 0
0.794837 -0.125539 0
0.889703 -0.131812 0
0.865166 -0.131632 0
0.840936 -0.130467 0
0.810055 -0.102689 0
0.785753 -0.102722 0
0.761708 -0.101948 0
0.719718 -0.0745037 0
0.696069 -0.0747161 0
0.672598 -0.0743014 0
0.840936 -0.130467 0
0.817551 -0.12843 0
0.794837 -0.125539 0
0.761708 -0.101948 0
0.738402 -0.100464 0
0.715717 -0.0982781 0
0.672598 -0.0743014 0
0.64975 -0.0733357 0
0.627457 -0.0718242 0
0.814242 -0.0672008 0
0.791193 -0.0700194 0
0.767459 -0.0721681 0
0.695936 -0.042484 0
0.675216 -0.0445492 0
0.653662 -0.0461473 0
0.533574 -0.0205818 0
0.517131 -0.021814 0
0.499756 -0.0227869 0
0.767459 -0.0721681 0
0.743711 -0.073673 0
0.719718 -0.0745037 0
0.653662 -0.0461473 0
0.631904 -0.0472976 0
0.609765 -0.0479737 0
0.499756 -0.0227869 0
0.482016 -0.0235224 0
0.463795 -0.0239914 0
0.533574 -0.0205818 0
0.517131 -0.021814 0
0.499756 -0.0227869 0
0.305792 -0.00596517 0
0.296132 -0.00635626 0
0.285721 -0.00665384 0
0 0 0
0 0 0
0 0 0
0.499756 -0.0227869 0
0.482016 -0.0235224 0
0.463795 -0.0239914 0
0.285721 -0.00665384 0
0.27498 -0.00688682 0
0.26382 -0.00702067 0
0 0 0
0 0 0
0 0 0
0.719718 -0.0745037 0
0.696069 -0.0747161 0
0.672598 -0.0743014 0
0.609765 -0.0479737 0
0.587794 -0.0482186 0
0.565885 -0.048021 0