# vtk DataFile Version 3.0
#This file was generated by the deal.II library on 2025/1/8 at 4:00:42
ASCII
DATASET UNSTRUCTURED_GRID

POINTS 34560 double
1.1 1.1 0
1.03125 1.09531 0
0.9625 1.09063 0
1.09375 1.03125 0
1.02539 1.02686 0
0.957031 1.02246 0
1.0875 0.9625 0
1.01953 0.958398 0
0.951563 0.954297 0
0.9625 1.09063 0
0.89375 1.08594 0
0.825 1.08125 0
0.957031 1.02246 0
0.888672 1.01807 0
0.820312 1.01367 0
0.951563 0.954297 0
0.883594 0.950195 0
0.815625 0.946094 0
1.0875 0.9625 0
1.01953 0.958398 0
0.951563 0.954297 0
1.08125 0.89375 0
1.01367 0.889941 0
0.946094 0.886133 0
1.075 0.825 0
1.00781 0.821484 0
0.940625 0.817969 0
0.951563 0.954297 0
0.883594 0.950195 0
0.815625 0.946094 0
0.946094 0.886133 0
0.878516 0.882324 0
0.810938 0.878516 0
0.940625 0.817969 0
0.873438 0.814453 0
0.80625 0.810937 0
0.825 1.08125 0
0.75625 1.07656 0
0.6875 1.07187 0
0.820312 1.01367 0
0.751953 1.00928 0
0.683594 1.00488 0
0.815625 0.946094 0
0.747656 0.941992 0
0.679688 0.937891 0
0.6875 1.07187 0
0.61875 1.06719 0
0.55 1.0625 0
0.683594 1.00488 0
0.615234 1.00049 0
0.546875 0.996094 0
0.679688 0.937891 0
0.611719 0.933789 0
0.54375 0.929688 0
0.815625 0.946094 0
0.747656 0.941992 0
0.679688 0.937891 0
0.810938 0.878516 0
0.743359 0.874707 0
0.675781 0.870898 0
0.80625 0.810937 0
0.739063 0.807422 0
0.671875 0.803906 0
0.679688 0.937891 0
0.611719 0.933789 0
0.54375 0.929688 0
0.675781 0.870898 0
0.608203 0.86709 0
0.540625 0.863281 0
0.671875 0.803906 0
0.604688 0.800391 0
0.5375 0.796875 0
1.075 0.825 0
1.00781 0.821484 0
0.940625 0.817969 0
1.06875 0.75625 0
1.00195 0.753027 0
0.935156 0.749805 0
1.0625 0.6875 0
0.996094 0.68457 0
0.929688 0.681641 0
0.940625 0.817969 0
0.873438 0.814453 0
0.80625 0.810937 0
0.935156 0.749805 0
0.868359 0.746582 0
0.801563 0.743359 0
0.929688 0.681641 0
0.863281 0.678711 0
0.796875 0.675781 0
1.0625 0.6875 0
0.996094 0.68457 0
0.929688 0.681641 0
1.05625 0.61875 0
0.990234 0.616113 0
0.924219 0.613477 0
1.05 0.55 0
0.984375 0.547656 0
0.91875 0.545313 0
0.929688 0.681641 0
0.863281 0.678711 0
0.796875 0.675781 0
0.924219 0.613477 0
0.858203 0.61084 0
0.792188 0.608203 0
0.91875 0.545313 0
0.853125 0.542969 0
0.7875 0.540625 0
0.80625 0.810937 0
0.739063 0.807422 0
0.671875 0.803906 0
0.801563 0.743359 0
0.734766 0.740137 0
0.667969 0.736914 0
0.796875 0.675781 0
0.730469 0.672852 0
0.664062 0.669922 0
0.671875 0.803906 0
0.604688 0.800391 0
0.5375 0.796875 0
0.667969 0.736914 0
0.601172 0.733691 0
0.534375 0.730469 0
0.664062 0.669922 0
0.597656 0.666992 0
0.53125 0.664062 0
0.796875 0.675781 0
0.730469 0.672852 0
0.664062 0.669922 0
0.792188 0.608203 0
0.726172 0.605566 0
0.660156 0.60293 0
0.7875 0.540625 0
0.721875 0.538281 0
0.65625 0.535937 0
0.664062 0.669922 0
0.597656 0.666992 0
0.53125 0.664062 0
0.660156 0.60293 0
0.594141 0.600293 0
0.528125 0.597656 0
0.65625 0.535937 0
0.590625 0.533594 0
0.525 0.53125 0
0.55 1.0625 0
0.48125 1.05781 0
0.4125 1.05313 0
0.546875 0.996094 0
0.478516 0.991699 0
0.410156 0.987305 0
0.54375 0.929688 0
0.475781 0.925586 0
0.407813 0.921484 0
0.4125 1.05313 0
0.34375 1.04844 0
0.275 1.04375 0
0.410156 0.987305 0
0.341797 0.98291 0
0.273438 0.978516 0
0.407813 0.921484 0
0.339844 0.917383 0
0.271875 0.913281 0
0.54375 0.929688 0
0.475781 0.925586 0
0.407813 0.921484 0
0.540625 0.863281 0
0.473047 0.859473 0
0.405469 0.855664 0
0.5375 0.796875 0
0.470313 0.793359 0
0.403125 0.789844 0
0.407813 0.921484 0
0.339844 0.917383 0
0.271875 0.913281 0
0.405469 0.855664 0
0.337891 0.851855 0
0.270313 0.848047 0
0.403125 0.789844 0
0.335938 0.786328 0
0.26875 0.782813 0
0.275 1.04375 0
0.20625 1.03906 0
0.1375 1.03437 0
0.273438 0.978516 0
0.205078 0.974121 0
0.136719 0.969727 0
0.271875 0.913281 0
0.203906 0.90918 0
0.135938 0.905078 0
0.1375 1.03437 0
0.06875 1.02969 0
0 1.025 0
0.136719 0.969727 0
0.0683594 0.965332 0
0 0.960937 0
0.135938 0.905078 0
0.0679688 0.900977 0
0 0.896875 0
0.271875 0.913281 0
0.203906 0.90918 0
0.135938 0.905078 0
0.270313 0.848047 0
0.202734 0.844238 0
0.135156 0.84043 0
0.26875 0.782813 0
0.201563 0.779297 0
0.134375 0.775781 0
0.135938 0.905078 0
0.0679688 0.900977 0
0 0.896875 0
0.135156 0.84043 0
0.0675781 0.836621 0
0 0.832812 0
0.134375 0.775781 0
0.0671875 0.772266 0
0 0.76875 0
0.5375 0.796875 0
0.470313 0.793359 0
0.403125 0.789844 0
0.534375 0.730469 0
0.467578 0.727246 0
0.400781 0.724023 0
0.53125 0.664062 0
0.464844 0.661133 0
0.398438 0.658203 0
0.403125 0.789844 0
0.335938 0.786328 0
0.26875 0.782813 0
0.400781 0.724023 0
0.333984 0.720801 0
0.267188 0.717578 0
0.398438 0.658203 0
0.332031 0.655273 0
0.265625 0.652344 0
0.53125 0.664062 0
0.464844 0.661133 0
0.398438 0.658203 0
0.528125 0.597656 0
0.462109 0.59502 0
0.396094 0.592383 0
0.525 0.53125 0
0.459375 0.528906 0
0.39375 0.526563 0
0.398438 0.658203 0
0.332031 0.655273 0
0.265625 0.652344 0
0.396094 0.592383 0
0.330078 0.589746 0
0.264062 0.587109 0
0.39375 0.526563 0
0.328125 0.524219 0
0.2625 0.521875 0
0.26875 0.782813 0
0.201563 0.779297 0
0.134375 0.775781 0
0.267188 0.717578 0
0.200391 0.714355 0
0.133594 0.711133 0
0.265625 0.652344 0
0.199219 0.649414 0
0.132812 0.646484 0
0.134375 0.775781 0
0.0671875 0.772266 0
0 0.76875 0
0.133594 0.711133 0
0.0667969 0.70791 0
0 0.704687 0
0.132812 0.646484 0
0.0664062 0.643555 0
0 0.640625 0
0.265625 0.652344 0
0.199219 0.649414 0
0.132812 0.646484 0
0.264062 0.587109 0
0.198047 0.584473 0
0.132031 0.581836 0
0.2625 0.521875 0
0.196875 0.519531 0
0.13125 0.517187 0
0.132812 0.646484 0
0.0664062 0.643555 0
0 0.640625 0
0.132031 0.581836 0
0.0660156 0.579199 0
0 0.576562 0
0.13125 0.517187 0
0.065625 0.514844 0
0 0.5125 0
1.05 0.55 0
0.984375 0.547656 0
0.91875 0.545313 0
1.04375 0.48125 0
0.978516 0.479199 0
0.913281 0.477148 0
1.0375 0.4125 0
0.972656 0.410742 0
0.907813 0.408984 0
0.91875 0.545313 0
0.853125 0.542969 0
0.7875 0.540625 0
0.913281 0.477148 0
0.848047 0.475098 0
0.782813 0.473047 0
0.907813 0.408984 0
0.842969 0.407227 0
0.778125 0.405469 0
1.0375 0.4125 0
0.972656 0.410742 0
0.907813 0.408984 0
1.03125 0.34375 0
0.966797 0.342285 0
0.902344 0.34082 0
1.025 0.275 0
0.960937 0.273828 0
0.896875 0.272656 0
0.907813 0.408984 0
0.842969 0.407227 0
0.778125 0.405469 0
0.902344 0.34082 0
0.837891 0.339355 0
0.773438 0.337891 0
0.896875 0.272656 0
0.832812 0.271484 0
0.76875 0.270313 0
0.7875 0.540625 0
0.721875 0.538281 0
0.65625 0.535937 0
0.782813 0.473047 0
0.717578 0.470996 0
0.652344 0.468945 0
0.778125 0.405469 0
0.713281 0.403711 0
0.648438 0.401953 0
0.65625 0.535937 0
0.590625 0.533594 0
0.525 0.53125 0
0.652344 0.468945 0
0.587109 0.466895 0
0.521875 0.464844 0
0.648438 0.401953 0
0.583594 0.400195 0
0.51875 0.398438 0
0.778125 0.405469 0
0.713281 0.403711 0
0.648438 0.401953 0
0.773438 0.337891 0
0.708984 0.336426 0
0.644531 0.334961 0
0.76875 0.270313 0
0.704687 0.269141 0
0.640625 0.267969 0
0.648438 0.401953 0
0.583594 0.400195 0
0.51875 0.398438 0
0.644531 0.334961 0
0.580078 0.333496 0
0.515625 0.332031 0
0.640625 0.267969 0
0.576562 0.266797 0
0.5125 0.265625 0
1.025 0.275 0
0.960937 0.273828 0
0.896875 0.272656 0
1.01875 0.20625 0
0.955078 0.205371 0
0.891406 0.204492 0
1.0125 0.1375 0
0.949219 0.136914 0
0.885937 0.136328 0
0.896875 0.272656 0
0.832812 0.271484 0
0.76875 0.270313 0
0.891406 0.204492 0
0.827734 0.203613 0
0.764062 0.202734 0
0.885937 0.136328 0
0.822656 0.135742 0
0.759375 0.135156 0
1.0125 0.1375 0
0.949219 0.136914 0
0.885937 0.136328 0
1.00625 0.06875 0
0.943359 0.068457 0
0.880469 0.0681641 0
1 0 0
0.9375 0 0
0.875 0 0
0.885937 0.136328 0
0.822656 0.135742 0
0.759375 0.135156 0
0.880469 0.0681641 0
0.817578 0.0678711 0
0.754687 0.0675781 0
0.875 0 0
0.8125 0 0
0.75 0 0
0.76875 0.270313 0
0.704687 0.269141 0
0.640625 0.267969 0
0.764062 0.202734 0
0.700391 0.201855 0
0.636719 0.200977 0
0.759375 0.135156 0
0.696094 0.13457 0
0.632812 0.133984 0
0.640625 0.267969 0
0.576562 0.266797 0
0.5125 0.265625 0
0.636719 0.200977 0
0.573047 0.200098 0
0.509375 0.199219 0
0.632812 0.133984 0
0.569531 0.133398 0
0.50625 0.132812 0
0.759375 0.135156 0
0.696094 0.13457 0
0.632812 0.133984 0
0.754687 0.0675781 0
0.691797 0.0672852 0
0.628906 0.0669922 0
0.75 0 0
0.6875 0 0
0.625 0 0
0.632812 0.133984 0
0.569531 0.133398 0
0.50625 0.132812 0
0.628906 0.0669922 0
0.566016 0.0666992 0
0.503125 0.0664062 0
0.625 0 0
0.5625 0 0
0.5 0 0
0.525 0.53125 0
0.459375 0.528906 0
0.39375 0.526563 0
0.521875 0.464844 0
0.456641 0.462793 0
0.391406 0.460742 0
0.51875 0.398438 0
0.453906 0.39668 0
0.389063 0.394922 0
0.39375 0.526563 0
0.328125 0.524219 0
0.2625 0.521875 0
0.391406 0.460742 0
0.326172 0.458691 0
0.260938 0.456641 0
0.389063 0.394922 0
0.324219 0.393164 0
0.259375 0.391406 0
0.51875 0.398438 0
0.453906 0.39668 0
0.389063 0.394922 0
0.515625 0.332031 0
0.451172 0.330566 0
0.386719 0.329102 0
0.5125 0.265625 0
0.448437 0.264453 0
0.384375 0.263281 0
0.389063 0.394922 0
0.324219 0.393164 0
0.259375 0.391406 0
0.386719 0.329102 0
0.322266 0.327637 0
0.257812 0.326172 0
0.384375 0.263281 0
0.320312 0.262109 0
0.25625 0.260937 0
0.2625 0.521875 0
0.196875 0.519531 0
0.13125 0.517187 0
0.260938 0.456641 0
0.195703 0.45459 0
0.130469 0.452539 0
0.259375 0.391406 0
0.194531 0.389648 0
0.129688 0.387891 0
0.13125 0.517187 0
0.065625 0.514844 0
0 0.5125 0
0.130469 0.452539 0
0.0652344 0.450488 0
0 0.448437 0
0.129688 0.387891 0
0.0648438 0.386133 0
0 0.384375 0
0.259375 0.391406 0
0.194531 0.389648 0
0.129688 0.387891 0
0.257812 0.326172 0
0.193359 0.324707 0
0.128906 0.323242 0
0.25625 0.260937 0
0.192187 0.259766 0
0.128125 0.258594 0
0.129688 0.387891 0
0.0648438 0.386133 0
0 0.384375 0
0.128906 0.323242 0
0.0644531 0.321777 0
0 0.320312 0
0.128125 0.258594 0
0.0640625 0.257422 0
0 0.25625 0
0.5125 0.265625 0
0.448437 0.264453 0
0.384375 0.263281 0
0.509375 0.199219 0
0.445703 0.19834 0
0.382031 0.197461 0
0.50625 0.132812 0
0.442969 0.132227 0
0.379688 0.131641 0
0.384375 0.263281 0
0.320312 0.262109 0
0.25625 0.260937 0
0.382031 0.197461 0
0.318359 0.196582 0
0.254687 0.195703 0
[...]
POINT_DATA 34560
VECTORS v double
1.20415 -0.251822 0
1.19346 -0.222185 0
1.18462 -0.195621 0
1.17293 -0.238492 0
1.16008 -0.211991 0
1.14955 -0.187379 0
1.13687 -0.224255 0
1.12258 -0.200089 0
1.11025 -0.177457 0
1.18462 -0.195621 0
1.17706 -0.170876 0
1.17099 -0.148598 0
1.14955 -0.187379 0
1.13998 -0.164524 0
1.13233 -0.143623 0
1.11025 -0.177457 0
1.09917 -0.156372 0
1.08985 -0.136888 0
1.13687 -0.224255 0
1.12258 -0.200089 0
1.11025 -0.177457 0
1.09477 -0.207562 0
1.07908 -0.185926 0
1.06543 -0.165533 0
1.04658 -0.190975 0
1.03007 -0.171637 0
1.01546 -0.153261 0
1.11025 -0.177457 0
1.09917 -0.156372 0
1.08985 -0.136888 0
1.06543 -0.165533 0
1.05305 -0.146387 0
1.04245 -0.128589 0
1.01546 -0.153261 0
1.0022 -0.135906 0
0.990648 -0.119664 0
1.17099 -0.148598 0
1.16538 -0.128215 0
1.16087 -0.109885 0
1.13233 -0.143623 0
1.125 -0.124405 0
1.11913 -0.106983 0
1.08985 -0.136888 0
1.08114 -0.118929 0
1.07386 -0.102509 0
1.16087 -0.109885 0
1.15642 -0.0932898 0
1.15271 -0.0784066 0
1.11913 -0.106983 0
1.1133 -0.0911039 0
1.10849 -0.0767872 0
1.07386 -0.102509 0
1.06686 -0.0875002 0
1.06094 -0.0738801 0
1.08985 -0.136888 0
1.08114 -0.118929 0
1.07386 -0.102509 0
1.04245 -0.128589 0
1.03262 -0.112061 0
1.02423 -0.0968661 0
0.990648 -0.119664 0
0.979972 -0.104511 0
0.970718 -0.0905016 0
1.07386 -0.102509 0
1.06686 -0.0875002 0
1.06094 -0.0738801 0
1.02423 -0.0968661 0
1.01631 -0.0828953 0
1.0095 -0.0701508 0
0.970718 -0.0905016 0
0.962075 -0.0775714 0
0.954559 -0.0657244 0
1.04658 -0.190975 0
1.03007 -0.171637 0
1.01546 -0.153261 0
0.993021 -0.173572 0
0.975924 -0.15643 0
0.960645 -0.140039 0
0.934658 -0.156257 0
0.917186 -0.141124 0
0.901421 -0.126571 0
1.01546 -0.153261 0
1.0022 -0.135906 0
0.990648 -0.119664 0
0.960645 -0.140039 0
0.946719 -0.124464 0
0.934437 -0.109815 0
0.901421 -0.126571 0
0.887009 -0.112686 0
0.874176 -0.0995643 0
0.934658 -0.156257 0
0.917186 -0.141124 0
0.901421 -0.126571 0
0.871353 -0.138096 0
0.853629 -0.12494 0
0.837561 -0.112239 0
0.803381 -0.120336 0
0.785592 -0.109014 0
0.769381 -0.0980346 0
0.901421 -0.126571 0
0.887009 -0.112686 0
0.874176 -0.0995643 0
0.837561 -0.112239 0
0.822827 -0.100068 0
0.80963 -0.0885217 0
0.769381 -0.0980346 0
0.754489 -0.0874778 0
0.741083 -0.0774281 0
0.990648 -0.119664 0
0.979972 -0.104511 0
0.970718 -0.0905016 0
0.934437 -0.109815 0
0.923115 -0.0960868 0
0.913187 -0.0833386 0
0.874176 -0.0995643 0
0.86237 -0.0872246 0
0.851928 -0.0757212 0
0.970718 -0.0905016 0
0.962075 -0.0775714 0
0.954559 -0.0657244 0
0.913187 -0.0833386 0
0.90399 -0.0715303 0
0.895923 -0.060673 0
0.851928 -0.0757212 0
0.842314 -0.0650386 0
0.833831 -0.0551884 0
0.874176 -0.0995643 0
0.86237 -0.0872246 0
0.851928 -0.0757212 0
0.80963 -0.0885217 0
0.797502 -0.0776245 0
0.786717 -0.0674328 0
0.741083 -0.0774281 0
0.728779 -0.0679206 0
0.717793 -0.0590057 0
0.851928 -0.0757212 0
0.842314 -0.0650386 0
0.833831 -0.0551884 0
0.786717 -0.0674328 0
0.776833 -0.0579432 0
0.76808 -0.049174 0
0.717793 -0.0590057 0
0.707766 -0.0506941 0
0.698869 -0.0430025 0
1.15271 -0.0784066 0
1.14888 -0.0650043 0
1.1455 -0.0529902 0
1.10849 -0.0767872 0
1.10361 -0.0638188 0
1.09941 -0.0521417 0
1.06094 -0.0738801 0
1.05515 -0.0615036 0
1.05014 -0.0503092 0
1.1455 -0.0529902 0
1.14196 -0.0421534 0
1.13866 -0.0323748 0
1.09941 -0.0521417 0
1.09513 -0.0415644 0
1.09127 -0.0319827 0
1.05014 -0.0503092 0
1.04521 -0.0401403 0
1.04082 -0.0308985 0
1.06094 -0.0738801 0
1.05515 -0.0615036 0
1.05014 -0.0503092 0
1.0095 -0.0701508 0
1.00301 -0.058516 0
0.997343 -0.0479502 0
0.954559 -0.0657244 0
0.9475 -0.054879 0
0.941306 -0.0449977 0
1.05014 -0.0503092 0
1.04521 -0.0401403 0
1.04082 -0.0308985 0
0.997343 -0.0479502 0
0.991932 -0.0383212 0
0.987125 -0.0295415 0
0.941306 -0.0449977 0
0.935505 -0.0359757 0
0.930365 -0.0277349 0
1.13866 -0.0323748 0
1.13521 -0.0234293 0
1.13186 -0.0151847 0
1.09127 -0.0319827 0
1.08737 -0.0231985 0
1.08374 -0.015075 0
1.04082 -0.0308985 0
1.03654 -0.022406 0
1.03264 -0.0145435 0
1.13186 -0.0151847 0
1.12842 -0.00740366 0
1.125 0 0
1.08374 -0.015075 0
1.08012 -0.00739354 0
1.07666 0 0
1.03264 -0.0145435 0
1.02888 -0.00710715 0
1.02539 0 0
1.04082 -0.0308985 0
1.03654 -0.022406 0
1.03264 -0.0145435 0
0.987125 -0.0295415 0
0.982572 -0.0214547 0
0.978477 -0.0139561 0
0.930365 -0.0277349 0
0.925598 -0.0201401 0
0.921354 -0.0130926 0
1.03264 -0.0145435 0
1.02888 -0.00710715 0
1.02539 0 0
0.978477 -0.0139561 0
0.974652 -0.00684928 0
0.971191 0 0
0.921354 -0.0130926 0
0.917489 -0.00641171 0
0.914062 0 0
0.954559 -0.0657244 0
0.9475 -0.054879 0
0.941306 -0.0449977 0
0.895923 -0.060673 0
0.888435 -0.0507065 0
0.881841 -0.0416032 0
0.833831 -0.0551884 0
0.826029 -0.0461324 0
0.819142 -0.0378466 0
0.941306 -0.0449977 0
0.935505 -0.0359757 0
0.930365 -0.0277349 0
0.881841 -0.0416032 0
0.87576 -0.0332784 0
0.870386 -0.025667 0
0.819142 -0.0378466 0
0.812869 -0.0302674 0
0.807338 -0.0233372 0
0.833831 -0.0551884 0
0.826029 -0.0461324 0
0.819142 -0.0378466 0
0.76808 -0.049174 0
0.760091 -0.0410994 0
0.753036 -0.0337039 0
0.698869 -0.0430025 0
0.690802 -0.0359186 0
0.683681 -0.0294292 0
0.819142 -0.0378466 0
0.812869 -0.0302674 0
0.807338 -0.0233372 0
0.753036 -0.0337039 0
0.746674 -0.0269372 0
0.741084 -0.0207548 0
0.683681 -0.0294292 0
0.677318 -0.0234995 0
0.671749 -0.0180916 0
0.930365 -0.0277349 0
0.925598 -0.0201401 0
0.921354 -0.0130926 0
0.870386 -0.025667 0
0.865488 -0.018648 0
0.861171 -0.0121331 0
0.807338 -0.0233372 0
0.802371 -0.016952 0
0.79803 -0.0110299 0
0.921354 -0.0130926 0
0.917489 -0.00641171 0
0.914062 0 0
0.861171 -0.0121331 0
0.857334 -0.00595233 0
0.854004 0 0
0.79803 -0.0110299 0
0.794245 -0.0054125 0
0.791016 0 0
0.807338 -0.0233372 0
0.802371 -0.016952 0
0.79803 -0.0110299 0
0.741084 -0.0207548 0
0.736127 -0.0150653 0
0.731834 -0.0097971 0
0.671749 -0.0180916 0
0.666866 -0.013129 0
0.662674 -0.00854592 0
0.79803 -0.0110299 0
0.794245 -0.0054125 0
0.791016 0 0
0.731834 -0.0097971 0
0.728164 -0.00480287 0
0.725098 0 0
0.662674 -0.00854592 0
0.659147 -0.00420572 0
0.65625 0 0
0.803381 -0.120336 0
0.785592 -0.109014 0
0.769381 -0.0980346 0
0.730992 -0.102047 0
0.713191 -0.0924985 0
0.696931 -0.083217 0
0.654163 -0.0841454 0
0.636463 -0.0762873 0
0.620254 -0.0686322 0
0.769381 -0.0980346 0
0.754489 -0.0874778 0
0.741083 -0.0774281 0
0.696931 -0.083217 0
0.681969 -0.0742703 0
0.668465 -0.0657361 0
0.620254 -0.0686322 0
0.605337 -0.0612402 0
0.591854 -0.0541794 0
0.654163 -0.0841454 0
0.636463 -0.0762873 0
0.620254 -0.0686322 0
0.572582 -0.0657799 0
0.555065 -0.0595826 0
0.539028 -0.0535473 0
0.48461 -0.0480195 0
0.467642 -0.0434355 0
0.452121 -0.0389792 0
0.620254 -0.0686322 0
0.605337 -0.0612402 0
0.591854 -0.0541794 0
0.539028 -0.0535473 0
0.524277 -0.0477196 0
0.510954 -0.0421563 0
0.452121 -0.0389792 0
0.437878 -0.0346805 0
0.425039 -0.0305862 0
0.741083 -0.0774281 0
0.728779 -0.0679206 0
0.717793 -0.0590057 0
0.668465 -0.0657361 0
0.656092 -0.0576493 0
0.645025 -0.0500555 0
0.591854 -0.0541794 0
0.57953 -0.0474832 0
0.568507 -0.0411909 0
0.717793 -0.0590057 0
0.707766 -0.0506941 0
0.698869 -0.0430025 0
0.645025 -0.0500555 0
0.634969 -0.0429691 0
0.626046 -0.0364083 0
0.568507 -0.0411909 0
0.558539 -0.0353205 0
0.54971 -0.0298873 0
0.591854 -0.0541794 0
0.57953 -0.0474832 0
0.568507 -0.0411909 0
0.510954 -0.0421563 0
0.498817 -0.0368842 0
0.487984 -0.0319352 0
0.425039 -0.0305862 0
0.413396 -0.0267136 0
0.403041 -0.0230879 0
0.568507 -0.0411909 0
0.558539 -0.0353205 0
0.54971 -0.0298873 0
0.487984 -0.0319352 0
0.478244 -0.0273243 0
0.469655 -0.0230641 0
0.403041 -0.0230879 0
0.393792 -0.0197185 0
0.385681 -0.0166149 0
0.48461 -0.0480195 0
0.467642 -0.0434355 0
0.452121 -0.0389792 0
0.387294 -0.0306359 0
0.371594 -0.0276086 0
0.357308 -0.024683 0
0.275868 -0.0154813 0
0.262995 -0.0139139 0
0.251364 -0.0124114 0
0.452121 -0.0389792 0
0.437878 -0.0346805 0
0.425039 -0.0305862 0
0.357308 -0.024683 0
0.344248 -0.021875 0
0.33254 -0.0192168 0
0.251364 -0.0124114 0
0.2408 -0.0109691 0
0.231401 -0.00961434 0
0.275868 -0.0154813 0
0.262995 -0.0139139 0
0.251364 -0.0124114 0
0.146218 -0.00431094 0
0.138536 -0.00384186 0
0.131701 -0.00340445 0
0 0 0
0 0 0
0 0 0
0.251364 -0.0124114 0
0.2408 -0.0109691 0
0.231401 -0.00961434 0
0.131701 -0.00340445 0
0.125517 -0.00298034 0
0.120092 -0.00259237 0
0 0 0
0 0 0
0 0 0
0.425039 -0.0305862 0
0.413396 -0.0267136 0
0.403041 -0.0230879 0
0.33254 -0.0192168 0
0.321983 -0.0167168 0
0.312651 -0.0143905 0
0.231401 -0.00961434 0
0.222988 -0.00834469 0
0.215608 -0.00717249 0
0.403041 -0.0230879 0
0.393792 -0.0197185 0
0.385681 -0.0166149 0
0.312651 -0.0143905 0
0.304377 -0.0122416 0
0.297173 -0.0102746 0
0.215608 -0.00717249 0
0.209114 -0.00609437 0
0.203503 -0.00511533 0
0.231401 -0.00961434 0
0.222988 -0.00834469 0
0.215608 -0.00717249 0
0.120092 -0.00259237 0
0.11526 -0.00222933 0
0.111072 -0.00190259 0
0 0 0
0 0 0
0 0 0
0.215608 -0.00717249 0
0.209114 -0.00609437 0
0.203503 -0.00511533 0
0.111072 -0.00190259 0
0.107406 -0.00160273 0
0.104263 -0.00133691 0
0 0 0
0 0 0
0 0 0
0.698869 -0.0430025 0
0.690802 -0.0359186 0
0.683681 -0.0294292 0
0.626046 -0.0364083 0
0.618012 -0.0303667 0
0.610938 -0.0248358 0
0.54971 -0.0298873 0
0.541819 -0.0248904 0
0.5349 -0.0203226 0
0.683681 -0.0294292 0
0.677318 -0.0234995 0
0.671749 -0.0180916 0
0.610938 -0.0248358 0
0.604672 -0.019789 0
0.599218 -0.0151992 0
0.5349 -0.0203226 0
0.528826 -0.0161663 0
0.523576 -0.0123999 0
0.54971 -0.0298873 0
0.541819 -0.0248904 0
0.5349 -0.0203226 0
0.469655 -0.0230641 0
0.462041 -0.0191535 0
0.45541 -0.0155869 0
0.385681 -0.0166149 0
0.378555 -0.0137745 0
0.3724 -0.0111911 0
0.5349 -0.0203226 0
0.528826 -0.0161663 0
0.523576 -0.0123999 0
0.45541 -0.0155869 0
0.449649 -0.0123499 0
0.444716 -0.00942847 0
0.3724 -0.0111911 0
0.367114 -0.00885287 0
0.362638 -0.00675084 0
0.671749 -0.0180916 0
0.666866 -0.013129 0
0.662674 -0.00854592 0
0.599218 -0.0151992 0
0.594488 -0.0110016 0
0.590466 -0.00714236 0
0.523576 -0.0123999 0
0.519071 -0.00897305 0
0.51528 -0.00583903 0
0.662674 -0.00854592 0
0.659147 -0.00420572 0
0.65625 0 0
0.590466 -0.00714236 0
0.587141 -0.00349638 0
0.584473 0 0
0.51528 -0.00583903 0
0.512194 -0.00288829 0
0.509766 0 0
0.523576 -0.0123999 0
0.519071 -0.00897305 0
0.51528 -0.00583903 0
0.444716 -0.00942847 0
0.44053 -0.00678292 0
0.437049 -0.00438406 0
0.362638 -0.00675084 0
0.358887 -0.00485765 0
0.355806 -0.00315014 0
0.51528 -0.00583903 0
0.512194 -0.00288829 0
0.509766 0 0
0.437049 -0.00438406 0
0.434263 -0.00213918 0
0.432129 0 0
0.355806 -0.00315014 0
0.353379 -0.0015696 0
0.351562 0 0
0.385681 -0.0166149 0
0.378555 -0.0137745 0
0.3724 -0.0111911 0
0.297173 -0.0102746 0
0.290904 -0.00848465 0
0.285538 -0.006864 0
0.203503 -0.00511533 0
0.198662 -0.0042286 0
0.194551 -0.00342963 0
0.3724 -0.0111911 0
0.367114 -0.00885287 0
0.362638 -0.00675084 0
0.285538 -0.006864 0
0.280983 -0.00540077 0
0.277174 -0.00409025 0
0.194551 -0.00342963 0
0.191095 -0.00270864 0
0.188235 -0.00206542 0
0.203503 -0.00511533 0
0.198662 -0.0042286 0
0.194551 -0.00342963 0
0.104263 -0.00133691 0
0.101566 -0.00109733 0
0.0992853 -0.000885033 0
0 0 0
0 0 0
0 0 0
0.194551 -0.00342963 0
0.191095 -0.00270864 0
0.188235 -0.00206542 0
0.0992853 -0.000885033 0
0.0973773 -0.000691344 0
0.0957972 -0.000521972 0
0 0 0
0 0 0
0 0 0
0.362638 -0.00675084 0
0.358887 -0.00485765 0
0.355806 -0.00315014 0
0.277174 -0.00409025 0
0.274029 -0.00291015 0
0.271488 -0.00185141 0
0.188235 -0.00206542 0
0.185911 -0.00148585 0
0.184067 -0.000958403 0
0.355806 -0.00315014 0
0.353379 -0.0015696 0
0.351562 0 0
0.271488 -0.00185141 0
0.269511 -0.000875521 0
0.268066 0 0
0.184067 -0.000958403 0
0.182656 -0.000479637 0
0.181641 0 0
0.188235 -0.00206542 0
0.185911 -0.00148585 0
0.184067 -0.000958403 0
0.0957972 -0.000521972 0
0.0945257 -0.000369547 0
0.0935396 -0.0002277 0
0 0 0
0 0 0
0 0 0
0.184067 -0.000958403 0
0.182656 -0.000479637 0
0.181641 0 0
0.0935396 -0.0002277 0
0.0927901 -8.03096e-05 0
0.0922852 0 0
0 0 0
0 0 0
0 0 0
1.64597 -0.481939 0
1.6054 -0.493874 0
1.56355 -0.500811 0
1.59211 -0.432206 0
1.55448 -0.443444 0
1.5158 -0.450292 0
1.53263 -0.386959 0
1.49858 -0.397655 0
1.46349 -0.40457 0
1.56355 -0.500811 0
1.52212 -0.502313 0
1.48037 -0.49878 0
1.5158 -0.450292 0
1.47754 -0.452752 0
1.43904 -0.450802 0
1.46349 -0.40457 0
1.42885 -0.407791 0
1.39396 -0.407143 0
1.53263 -0.386959 0
1.49858 -0.397655 0
1.46349 -0.40457 0
1.47436 -0.347426 0
1.44308 -0.356533 0
1.41093 -0.362497 0
1.41244 -0.308701 0
1.38271 -0.316978 0
1.35225 -0.32255 0
1.46349 -0.40457 0
1.42885 -0.407791 0
1.39396 -0.407143 0
1.41093 -0.362497 0
1.37898 -0.365332 0
1.34677 -0.364946 0
1.35225 -0.32255 0
1.32203 -0.325467 0
1.29163 -0.325627 0
1.48037 -0.49878 0
1.44165 -0.490499 0
1.40377 -0.477595 0
1.43904 -0.450802 0
1.40311 -0.444707 0
1.36792 -0.434908 0
1.39396 -0.407143 0
1.36114 -0.402988 0
1.32893 -0.395427 0
1.40377 -0.477595 0
1.37007 -0.461506 0
1.33808 -0.442125 0
1.36792 -0.434908 0
1.33628 -0.421957 0
1.30617 -0.406152 0
1.32893 -0.395427 0
1.29952 -0.384968 0
1.27142 -0.371817 0
1.39396 -0.407143 0
1.36114 -0.402988 0
1.32893 -0.395427 0
1.34677 -0.364946 0
1.31606 -0.361581 0
1.2858 -0.355325 0
1.29163 -0.325627 0
1.26251 -0.323238 0
1.23386 -0.318363 0
1.32893 -0.395427 0
1.29952 -0.384968 0
1.27142 -0.371817 0
1.2858 -0.355325 0
1.25774 -0.346623 0
1.23078 -0.335606 0
1.23386 -0.318363 0
1.20709 -0.311333 0
1.18136 -0.30225 0
1.41244 -0.308701 0
1.38271 -0.316978 0
1.35225 -0.32255 0
1.34645 -0.273349 0
1.31828 -0.281035 0
1.28949 -0.286319 0
1.2793 -0.239402 0
1.25247 -0.246541 0
1.22502 -0.251585 0
1.35225 -0.32255 0
1.32203 -0.325467 0
1.29163 -0.325627 0
1.28949 -0.286319 0
1.26096 -0.289251 0
1.23229 -0.28977 0
1.22502 -0.251585 0
1.19779 -0.254576 0
1.17043 -0.255455 0
1.2793 -0.239402 0
1.25247 -0.246541 0
1.22502 -0.251585 0
1.21052 -0.207187 0
1.18464 -0.213622 0
1.15817 -0.21824 0
1.13898 -0.176092 0
1.11376 -0.181969 0
1.08798 -0.186285 0
1.22502 -0.251585 0
1.19779 -0.254576 0
1.17043 -0.255455 0
1.15817 -0.21824 0
1.13187 -0.221091 0
1.10543 -0.222121 0
1.08798 -0.186285 0
1.06235 -0.189088 0
1.0366 -0.190325 0
1.29163 -0.325627 0
1.26251 -0.323238 0
1.23386 -0.318363 0
1.23229 -0.28977 0
1.20473 -0.288049 0
1.1776 -0.284131 0
1.17043 -0.255455 0
1.14399 -0.254368 0
1.11793 -0.251345 0
1.23386 -0.318363 0
1.20709 -0.311333 0
1.18136 -0.30225 0
1.1776 -0.284131 0
1.15207 -0.278295 0
1.12746 -0.270624 0
1.11793 -0.251345 0
1.09321 -0.246622 0
1.06934 -0.240263 0
1.17043 -0.255455 0
1.14399 -0.254368 0
1.11793 -0.251345 0
1.10543 -0.222121 0
1.07977 -0.221466 0
1.05445 -0.219135 0
1.0366 -0.190325 0
1.01153 -0.190111 0
0.986787 -0.188447 0
1.11793 -0.251345 0
1.09321 -0.246622 0
1.06934 -0.240263 0
1.05445 -0.219135 0
1.03031 -0.215335 0
1.00694 -0.2101 0
0.986787 -0.188447 0
0.963071 -0.1855 0
0.940093 -0.181297 0
1.33808 -0.442125 0
1.31081 -0.420947 0
1.28598 -0.397499 0
1.30617 -0.406152 0
1.28015 -0.388176 0
1.2563 -0.368487 0
1.27142 -0.371817 0
1.24657 -0.356663 0
1.22356 -0.339751 0
1.28598 -0.397499 0
1.26513 -0.373502 0
1.24693 -0.348663 0
1.2563 -0.368487 0
1.23593 -0.347768 0
1.21799 -0.326096 0
1.22356 -0.339751 0
1.20346 -0.321641 0
1.18545 -0.302533 0
1.27142 -0.371817 0
1.24657 -0.356663 0
1.22356 -0.339751 0
1.23078 -0.335606 0
1.20651 -0.322809 0
1.18385 -0.308382 0
1.18136 -0.30225 0
1.15795 -0.29152 0
1.13606 -0.279306 0
1.22356 -0.339751 0
1.20346 -0.321641 0
1.18545 -0.302533 0
1.18385 -0.308382 0
1.16375 -0.292858 0
1.14558 -0.276398 0
1.13606 -0.279306 0
1.1164 -0.26602 0
1.09851 -0.251798 0
1.24693 -0.348663 0
1.2323 -0.323945 0
1.22051 -0.299091 0
1.21799 -0.326096 0
1.20319 -0.304047 0
1.1909 -0.28191 0
1.18545 -0.302533 0
1.17009 -0.282983 0
1.15695 -0.26319 0
1.22051 -0.299091 0
1.21117 -0.275024 0
1.20415 -0.251822 0
1.1909 -0.28191 0
1.18075 -0.260059 0
1.17293 -0.238492 0
1.15695 -0.26319 0
1.14585 -0.243534 0
1.13687 -0.224255 0
1.18545 -0.302533 0
1.17009 -0.282983 0
1.15695 -0.26319 0
1.14558 -0.276398 0
1.12986 -0.259448 0
1.11622 -0.242139 0
1.09851 -0.251798 0
1.0828 -0.236993 0
1.06898 -0.221759 0
1.15695 -0.26319 0
1.14585 -0.243534 0
1.13687 -0.224255 0
1.11622 -0.242139 0
1.1045 -0.224798 0
1.09477 -0.207562 0
1.06898 -0.221759 0
1.05687 -0.206367 0
1.04658 -0.190975 0
1.18136 -0.30225 0
1.15795 -0.29152 0
1.13606 -0.279306 0
1.12746 -0.270624 0
1.10483 -0.261474 0
1.08354 -0.250972 0
1.06934 -0.240263 0
1.04716 -0.232566 0
1.02622 -0.223639 0
1.13606 -0.279306 0
1.1164 -0.26602 0
1.09851 -0.251798 0
1.08354 -0.250972 0
1.06417 -0.239472 0
1.04639 -0.227079 0
1.02622 -0.223639 0
1.00698 -0.213779 0
0.989221 -0.203087 0
1.06934 -0.240263 0
1.04716 -0.232566 0
1.02622 -0.223639 0
1.00694 -0.2101 0
0.985065 -0.203686 0
0.964339 -0.196169 0
0.940093 -0.181297 0
0.918424 -0.176044 0
0.897836 -0.16981 0
1.02622 -0.223639 0
1.00698 -0.213779 0
0.989221 -0.203087 0
0.964339 -0.196169 0
0.94515 -0.187803 0
0.927346 -0.17867 0
0.897836 -0.16981 0
0.878627 -0.1628 0
0.860724 -0.155088 0
1.09851 -0.251798 0
1.0828 -0.236993 0
1.06898 -0.221759 0
1.04639 -0.227079 0
1.03054 -0.214123 0
1.01641 -0.200749 0
0.989221 -0.203087 0
0.973215 -0.191845 0
0.958827 -0.180176 0
1.06898 -0.221759 0
1.05687 -0.206367 0
1.04658 -0.190975 0
1.01641 -0.200749 0
1.00387 -0.187203 0
0.993021 -0.173572 0
0.958827 -0.180176 0
0.94594 -0.168281 0
0.934658 -0.156257 0
0.989221 -0.203087 0
0.973215 -0.191845 0
0.958827 -0.180176 0
0.927346 -0.17867 0
0.911132 -0.169005 0
0.896438 -0.158914 0
0.860724 -0.155088 0
0.844273 -0.146871 0
0.829267 -0.138249 0
0.958827 -0.180176 0
0.94594 -0.168281 0
0.934658 -0.156257 0
0.896438 -0.158914 0
0.883139 -0.14858 0
0.871353 -0.138096 0
0.829267 -0.138249 0
0.81559 -0.129376 0
0.803381 -0.120336 0
1.13898 -0.176092 0
1.11376 -0.181969 0
1.08798 -0.186285 0
1.06546 -0.146785 0
1.04078 -0.152044 0
1.01554 -0.155964 0
0.988982 -0.118105 0
0.964755 -0.122799 0
0.939921 -0.126365 0
1.08798 -0.186285 0
1.06235 -0.189088 0
1.0366 -0.190325 0
1.01554 -0.155964 0
0.990425 -0.158584 0
0.965169 -0.159861 0
0.939921 -0.126365 0
0.915169 -0.128839 0
0.890239 -0.130183 0
0.988982 -0.118105 0
0.964755 -0.122799 0
0.939921 -0.126365 0
0.906841 -0.0906141 0
0.883263 -0.0946397 0
0.859009 -0.0977451 0
0.811972 -0.0643238 0
0.789648 -0.0676201 0
0.766493 -0.0702098 0
0.939921 -0.126365 0
0.915169 -0.128839 0
0.890239 -0.130183 0
0.859009 -0.0977451 0
0.834737 -0.0999582 0
0.810221 -0.101249 0
0.766493 -0.0702098 0
0.743195 -0.0721159 0
0.719543 -0.0733082 0
1.0366 -0.190325 0
1.01153 -0.190111 0
0.986787 -0.188447 0
0.965169 -0.159861 0
0.940493 -0.159894 0
0.916108 -0.158684 0
0.890239 -0.130183 0
0.865798 -0.13048 0
0.841608 -0.12973 0
0.986787 -0.188447 0
0.963071 -0.1855 0
0.940093 -0.181297 0
0.916108 -0.158684 0
0.892622 -0.156374 0
0.869819 -0.152985 0
0.841608 -0.12973 0
0.81821 -0.12805 0
0.795451 -0.125456 0
0.890239 -0.130183 0
0.865798 -0.13048 0
0.841608 -0.12973 0
0.810221 -0.101249 0
0.786082 -0.101687 0
0.762133 -0.101266 0
0.719543 -0.0733082 0
0.696132 -0.0738427 0
0.67282 -0.0737099 0
0.841608 -0.12973 0
0.81821 -0.12805 0
0.795451 -0.125456 0
0.762133 -0.101266 0
0.73886 -0.100086 0
0.716165 -0.098156 0
0.67282 -0.0737099 0
0.650056 -0.0729881 0
0.627792 -0.0716819 0
0.811972 -0.0643238 0
0.789648 -0.0676201 0
0.766493 -0.0702098 0
0.69276 -0.0405003 0
0.672889 -0.0428877 0
0.65203 -0.044786 0
0.529822 -0.0195247 0
0.514205 -0.0209225 0
0.497519 -0.0220512 0
0.766493 -0.0702098 0
0.743195 -0.0721159 0
0.719543 -0.0733082 0
0.65203 -0.044786 0
0.630823 -0.0462115 0
0.609115 -0.047137 0
0.497519 -0.0220512 0
0.480332 -0.0229311 0
0.462551 -0.0235314 0
0.529822 -0.0195247 0
0.514205 -0.0209225 0
0.497519 -0.0220512 0
0.302755 -0.00567 0
0.293593 -0.00610808 0
0.283603 -0.00644963 0
0 0 0
0 0 0
0 0 0
0.497519 -0.0220512 0
0.480332 -0.0229311 0
0.462551 -0.0235314 0
0.283603 -0.00644963 0
0.273194 -0.00672449 0
0.262302 -0.00689589 0
0 0 0
0 0 0
0 0 0
0.719543 -0.0733082 0
0.696132 -0.0738427 0
0.67282 -0.0737099 0
0.609115 -0.047137 0
0.587459 -0.0476048 0
0.565774 -0.0476026 0