# vtk DataFile Version 3.0
#This file was generated by the deal.II library on 2025/1/1 at 19:45:11
ASCII
DATASET UNSTRUCTURED_GRID

POINTS 34560 double
1.1 1.1 0
1.03125 1.09531 0
0.9625 1.09063 0
1.09375 1.03125 0
1.02539 1.02686 0
0.957031 1.02246 0
1.0875 0.9625 0
1.01953 0.958398 0
0.951563 0.954297 0
0.9625 1.09063 0
0.89375 1.08594 0
0.825 1.08125 0
0.957031 1.02246 0
0.888672 1.01807 0
0.820312 1.01367 0
0.951563 0.954297 0
0.883594 0.950195 0
0.815625 0.946094 0
1.0875 0.9625 0
1.01953 0.958398 0
0.951563 0.954297 0
1.08125 0.89375 0
1.01367 0.889941 0
0.946094 0.886133 0
1.075 0.825 0
1.00781 0.821484 0
0.940625 0.817969 0
0.951563 0.954297 0
0.883594 0.950195 0
0.815625 0.946094 0
0.946094 0.886133 0
0.878516 0.882324 0
0.810938 0.878516 0
0.940625 0.817969 0
0.873438 0.814453 0
0.80625 0.810937 0
0.825 1.08125 0
0.75625 1.07656 0
0.6875 1.07187 0
0.820312 1.01367 0
0.751953 1.00928 0
0.683594 1.00488 0
0.815625 0.946094 0
0.747656 0.941992 0
0.679688 0.937891 0
0.6875 1.07187 0
0.61875 1.06719 0
0.55 1.0625 0
0.683594 1.00488 0
0.615234 1.00049 0
0.546875 0.996094 0
0.679688 0.937891 0
0.611719 0.933789 0
0.54375 0.929688 0
0.815625 0.946094 0
0.747656 0.941992 0
0.679688 0.937891 0
0.810938 0.878516 0
0.743359 0.874707 0
0.675781 0.870898 0
0.80625 0.810937 0
0.739063 0.807422 0
0.671875 0.803906 0
0.679688 0.937891 0
0.611719 0.933789 0
0.54375 0.929688 0
0.675781 0.870898 0
0.608203 0.86709 0
0.540625 0.863281 0
0.671875 0.803906 0
0.604688 0.800391 0
0.5375 0.796875 0
1.075 0.825 0
1.00781 0.821484 0
0.940625 0.817969 0
1.06875 0.75625 0
1.00195 0.753027 0
0.935156 0.749805 0
1.0625 0.6875 0
0.996094 0.68457 0
0.929688 0.681641 0
0.940625 0.817969 0
0.873438 0.814453 0
0.80625 0.810937 0
0.935156 0.749805 0
0.868359 0.746582 0
0.801563 0.743359 0
0.929688 0.681641 0
0.863281 0.678711 0
0.796875 0.675781 0
1.0625 0.6875 0
0.996094 0.68457 0
0.929688 0.681641 0
1.05625 0.61875 0
0.990234 0.616113 0
0.924219 0.613477 0
1.05 0.55 0
0.984375 0.547656 0
0.91875 0.545313 0
0.929688 0.681641 0
0.863281 0.678711 0
0.796875 0.675781 0
0.924219 0.613477 0
0.858203 0.61084 0
0.792188 0.608203 0
0.91875 0.545313 0
0.853125 0.542969 0
0.7875 0.540625 0
0.80625 0.810937 0
0.739063 0.807422 0
0.671875 0.803906 0
0.801563 0.743359 0
0.734766 0.740137 0
0.667969 0.736914 0
0.796875 0.675781 0
0.730469 0.672852 0
0.664062 0.669922 0
0.671875 0.803906 0
0.604688 0.800391 0
0.5375 0.796875 0
0.667969 0.736914 0
0.601172 0.733691 0
0.534375 0.730469 0
0.664062 0.669922 0
0.597656 0.666992 0
0.53125 0.664062 0
0.796875 0.675781 0
0.730469 0.672852 0
0.664062 0.669922 0
0.792188 0.608203 0
0.726172 0.605566 0
0.660156 0.60293 0
0.7875 0.540625 0
0.721875 0.538281 0
0.65625 0.535937 0
0.664062 0.669922 0
0.597656 0.666992 0
0.53125 0.664062 0
0.660156 0.60293 0
0.594141 0.600293 0
0.528125 0.597656 0
0.65625 0.535937 0
0.590625 0.533594 0
0.525 0.53125 0
0.55 1.0625 0
0.48125 1.05781 0
0.4125 1.05313 0
0.546875 0.996094 0
0.478516 0.991699 0
0.410156 0.987305 0
0.54375 0.929688 0
0.475781 0.925586 0
0.407813 0.921484 0
0.4125 1.05313 0
0.34375 1.04844 0
0.275 1.04375 0
0.410156 0.987305 0
0.341797 0.98291 0
0.273438 0.978516 0
0.407813 0.921484 0
0.339844 0.917383 0
0.271875 0.913281 0
0.54375 0.929688 0
0.475781 0.925586 0
0.407813 0.921484 0
0.540625 0.863281 0
0.473047 0.859473 0
0.405469 0.855664 0
0.5375 0.796875 0
0.470313 0.793359 0
0.403125 0.789844 0
0.407813 0.921484 0
0.339844 0.917383 0
0.271875 0.913281 0
0.405469 0.855664 0
0.337891 0.851855 0
0.270313 0.848047 0
0.403125 0.789844 0
0.335938 0.786328 0
0.26875 0.782813 0
0.275 1.04375 0
0.20625 1.03906 0
0.1375 1.03437 0
0.273438 0.978516 0
0.205078 0.974121 0
0.136719 0.969727 0
0.271875 0.913281 0
0.203906 0.90918 0
0.135938 0.905078 0
0.1375 1.03437 0
0.06875 1.02969 0
0 1.025 0
0.136719 0.969727 0
0.0683594 0.965332 0
0 0.960937 0
0.135938 0.905078 0
0.0679688 0.900977 0
0 0.896875 0
0.271875 0.913281 0
0.203906 0.90918 0
0.135938 0.905078 0
0.270313 0.848047 0
0.202734 0.844238 0
0.135156 0.84043 0
0.26875 0.782813 0
0.201563 0.779297 0
0.134375 0.775781 0
0.135938 0.905078 0
0.0679688 0.900977 0
0 0.896875 0
0.135156 0.84043 0
0.0675781 0.836621 0
0 0.832812 0
0.134375 0.775781 0
0.0671875 0.772266 0
0 0.76875 0
0.5375 0.796875 0
0.470313 0.793359 0
0.403125 0.789844 0
0.534375 0.730469 0
0.467578 0.727246 0
0.400781 0.724023 0
0.53125 0.664062 0
0.464844 0.661133 0
0.398438 0.658203 0
0.403125 0.789844 0
0.335938 0.786328 0
0.26875 0.782813 0
0.400781 0.724023 0
0.333984 0.720801 0
0.267188 0.717578 0
0.398438 0.658203 0
0.332031 0.655273 0
0.265625 0.652344 0
0.53125 0.664062 0
0.464844 0.661133 0
0.398438 0.658203 0
0.528125 0.597656 0
0.462109 0.59502 0
0.396094 0.592383 0
0.525 0.53125 0
0.459375 0.528906 0
0.39375 0.526563 0
0.398438 0.658203 0
0.332031 0.655273 0
0.265625 0.652344 0
0.396094 0.592383 0
0.330078 0.589746 0
0.264062 0.587109 0
0.39375 0.526563 0
0.328125 0.524219 0
0.2625 0.521875 0
0.26875 0.782813 0
0.201563 0.779297 0
0.134375 0.775781 0
0.267188 0.717578 0
0.200391 0.714355 0
0.133594 0.711133 0
0.265625 0.652344 0
0.199219 0.649414 0
0.132812 0.646484 0
0.134375 0.775781 0
0.0671875 0.772266 0
0 0.76875 0
0.133594 0.711133 0
0.0667969 0.70791 0
0 0.704687 0
0.132812 0.646484 0
0.0664062 0.643555 0
0 0.640625 0
0.265625 0.652344 0
0.199219 0.649414 0
0.132812 0.646484 0
0.264062 0.587109 0
0.198047 0.584473 0
0.132031 0.581836 0
0.2625 0.521875 0
0.196875 0.519531 0
0.13125 0.517187 0
0.132812 0.646484 0
0.0664062 0.643555 0
0 0.640625 0
0.132031 0.581836 0
0.0660156 0.579199 0
0 0.576562 0
0.13125 0.517187 0
0.065625 0.514844 0
0 0.5125 0
1.05 0.55 0
0.984375 0.547656 0
0.91875 0.545313 0
1.04375 0.48125 0
0.978516 0.479199 0
0.913281 0.477148 0
1.0375 0.4125 0
0.972656 0.410742 0
0.907813 0.408984 0
0.91875 0.545313 0
0.853125 0.542969 0
0.7875 0.540625 0
0.913281 0.477148 0
0.848047 0.475098 0
0.782813 0.473047 0
0.907813 0.408984 0
0.842969 0.407227 0
0.778125 0.405469 0
1.0375 0.4125 0
0.972656 0.410742 0
0.907813 0.408984 0
1.03125 0.34375 0
0.966797 0.342285 0
0.902344 0.34082 0
1.025 0.275 0
0.960937 0.273828 0
0.896875 0.272656 0
0.907813 0.408984 0
0.842969 0.407227 0
0.778125 0.405469 0
0.902344 0.34082 0
0.837891 0.339355 0
0.773438 0.337891 0
0.896875 0.272656 0
0.832812 0.271484 0
0.76875 0.270313 0
0.7875 0.540625 0
0.721875 0.538281 0
0.65625 0.535937 0
0.782813 0.473047 0
0.717578 0.470996 0
0.652344 0.468945 0
0.778125 0.405469 0
0.713281 0.403711 0
0.648438 0.401953 0
0.65625 0.535937 0
0.590625 0.533594 0
0.525 0.53125 0
0.652344 0.468945 0
0.587109 0.466895 0
0.521875 0.464844 0
0.648438 0.401953 0
0.583594 0.400195 0
0.51875 0.398438 0
0.778125 0.405469 0
0.713281 0.403711 0
0.648438 0.401953 0
0.773438 0.337891 0
0.708984 0.336426 0
0.644531 0.334961 0
0.76875 0.270313 0
0.704687 0.269141 0
0.640625 0.267969 0
0.648438 0.401953 0
0.583594 0.400195 0
0.51875 0.398438 0
0.644531 0.334961 0
0.580078 0.333496 0
0.515625 0.332031 0
0.640625 0.267969 0
0.576562 0.266797 0
0.5125 0.265625 0
1.025 0.275 0
0.960937 0.273828 0
0.896875 0.272656 0
1.01875 0.20625 0
0.955078 0.205371 0
0.891406 0.204492 0
1.0125 0.1375 0
0.949219 0.136914 0
0.885937 0.136328 0
0.896875 0.272656 0
0.832812 0.271484 0
0.76875 0.270313 0
0.891406 0.204492 0
0.827734 0.203613 0
0.764062 0.202734 0
0.885937 0.136328 0
0.822656 0.135742 0
0.759375 0.135156 0
1.0125 0.1375 0
0.949219 0.136914 0
0.885937 0.136328 0
1.00625 0.06875 0
0.943359 0.068457 0
0.880469 0.0681641 0
1 0 0
0.9375 0 0
0.875 0 0
0.885937 0.136328 0
0.822656 0.135742 0
0.759375 0.135156 0
0.880469 0.0681641 0
0.817578 0.0678711 0
0.754687 0.0675781 0
0.875 0 0
0.8125 0 0
0.75 0 0
0.76875 0.270313 0
0.704687 0.269141 0
0.640625 0.267969 0
0.764062 0.202734 0
0.700391 0.201855 0
0.636719 0.200977 0
0.759375 0.135156 0
0.696094 0.13457 0
0.632812 0.133984 0
0.640625 0.267969 0
0.576562 0.266797 0
0.5125 0.265625 0
0.636719 0.200977 0
0.573047 0.200098 0
0.509375 0.199219 0
0.632812 0.133984 0
0.569531 0.133398 0
0.50625 0.132812 0
0.759375 0.135156 0
0.696094 0.13457 0
0.632812 0.133984 0
0.754687 0.0675781 0
0.691797 0.0672852 0
0.628906 0.0669922 0
0.75 0 0
0.6875 0 0
0.625 0 0
0.632812 0.133984 0
0.569531 0.133398 0
0.50625 0.132812 0
0.628906 0.0669922 0
0.566016 0.0666992 0
0.503125 0.0664062 0
0.625 0 0
0.5625 0 0
0.5 0 0
0.525 0.53125 0
0.459375 0.528906 0
0.39375 0.526563 0
0.521875 0.464844 0
0.456641 0.462793 0
0.391406 0.460742 0
0.51875 0.398438 0
0.453906 0.39668 0
0.389063 0.394922 0
0.39375 0.526563 0
0.328125 0.524219 0
0.2625 0.521875 0
0.391406 0.460742 0
0.326172 0.458691 0
0.260938 0.456641 0
0.389063 0.394922 0
0.324219 0.393164 0
0.259375 0.391406 0
0.51875 0.398438 0
0.453906 0.39668 0
0.389063 0.394922 0
0.515625 0.332031 0
0.451172 0.330566 0
0.386719 0.329102 0
0.5125 0.265625 0
0.448437 0.264453 0
0.384375 0.263281 0
0.389063 0.394922 0
0.324219 0.393164 0
0.259375 0.391406 0
0.386719 0.329102 0
0.322266 0.327637 0
0.257812 0.326172 0
0.384375 0.263281 0
0.320312 0.262109 0
0.25625 0.260937 0
0.2625 0.521875 0
0.196875 0.519531 0
0.13125 0.517187 0
0.260938 0.456641 0
0.195703 0.45459 0
0.130469 0.452539 0
0.259375 0.391406 0
0.194531 0.389648 0
0.129688 0.387891 0
0.13125 0.517187 0
0.065625 0.514844 0
0 0.5125 0
0.130469 0.452539 0
0.0652344 0.450488 0
0 0.448437 0
0.129688 0.387891 0
0.0648438 0.386133 0
0 0.384375 0
0.259375 0.391406 0
0.194531 0.389648 0
0.129688 0.387891 0
0.257812 0.326172 0
0.193359 0.324707 0
0.128906 0.323242 0
0.25625 0.260937 0
0.192187 0.259766 0
0.128125 0.258594 0
0.129688 0.387891 0
0.0648438 0.386133 0
0 0.384375 0
0.128906 0.323242 0
0.0644531 0.321777 0
0 0.320312 0
0.128125 0.258594 0
0.0640625 0.257422 0
0 0.25625 0
0.5125 0.265625 0
0.448437 0.264453 0
0.384375 0.263281 0
0.509375 0.199219 0
0.445703 0.19834 0
0.382031 0.197461 0
0.50625 0.132812 0
0.442969 0.132227 0
0.379688 0.131641 0
0.384375 0.263281 0
0.320312 0.262109 0
0.25625 0.260937 0
0.382031 0.197461 0
0.318359 0.196582 0
0.254687 0.195703 0
[...]
POINT_DATA 34560
VECTORS v double
1.21396 -0.127229 0
1.20383 -0.110999 0
1.19531 -0.102713 0
1.17684 -0.116677 0
1.16291 -0.108287 0
1.15515 -0.0994878 0
1.13147 -0.106799 0
1.11933 -0.0981849 0
1.11055 -0.0911007 0
1.19531 -0.102713 0
1.18526 -0.0930365 0
1.17971 -0.0848791 0
1.15515 -0.0994878 0
1.14407 -0.0914194 0
1.13807 -0.0837058 0
1.11055 -0.0911007 0
1.09963 -0.0839924 0
1.09281 -0.0774647 0
1.13147 -0.106799 0
1.11933 -0.0981849 0
1.11055 -0.0911007 0
1.08153 -0.0956994 0
1.06913 -0.0896585 0
1.06041 -0.0838909 0
1.02736 -0.0871399 0
1.01606 -0.0817923 0
1.00693 -0.0768445 0
1.11055 -0.0911007 0
1.09963 -0.0839924 0
1.09281 -0.0774647 0
1.06041 -0.0838909 0
1.04947 -0.0781559 0
1.04242 -0.072817 0
1.00693 -0.0768445 0
0.996223 -0.0717699 0
0.988821 -0.06708 0
1.17971 -0.0848791 0
1.172 -0.0778565 0
1.16741 -0.0711611 0
1.13807 -0.0837058 0
1.12959 -0.0770903 0
1.12445 -0.0707669 0
1.09281 -0.0774647 0
1.08385 -0.0716574 0
1.0781 -0.0661583 0
1.16741 -0.0711611 0
1.16139 -0.0658431 0
1.1573 -0.0606099 0
1.12445 -0.0707669 0
1.11773 -0.0655893 0
1.11311 -0.0605728 0
1.0781 -0.0661583 0
1.07078 -0.0615633 0
1.06562 -0.0571342 0
1.09281 -0.0774647 0
1.08385 -0.0716574 0
1.0781 -0.0661583 0
1.04242 -0.072817 0
1.03332 -0.067812 0
1.02723 -0.063105 0
0.988821 -0.06708 0
0.979629 -0.0626384 0
0.973173 -0.0584822 0
1.0781 -0.0661583 0
1.07078 -0.0615633 0
1.06562 -0.0571342 0
1.02723 -0.063105 0
1.01962 -0.0590192 0
1.01412 -0.055115 0
0.973173 -0.0584822 0
0.965311 -0.0548224 0
0.959466 -0.0513466 0
1.02736 -0.0871399 0
1.01606 -0.0817923 0
1.00693 -0.0768445 0
0.968224 -0.0769234 0
0.957244 -0.0729814 0
0.948304 -0.0693061 0
0.905506 -0.0692308 0
0.89539 -0.0658603 0
0.886449 -0.0626448 0
1.00693 -0.0768445 0
0.996223 -0.0717699 0
0.988821 -0.06708 0
0.948304 -0.0693061 0
0.937907 -0.0652605 0
0.930447 -0.0615626 0
0.886449 -0.0626448 0
0.876463 -0.0591104 0
0.868906 -0.0558752 0
0.905506 -0.0692308 0
0.89539 -0.0658603 0
0.886449 -0.0626448 0
0.838311 -0.0600472 0
0.828588 -0.0575528 0
0.819956 -0.0552624 0
0.767589 -0.0530864 0
0.758628 -0.0510042 0
0.7502 -0.0490009 0
0.886449 -0.0626448 0
0.876463 -0.0591104 0
0.868906 -0.0558752 0
0.819956 -0.0552624 0
0.810381 -0.0525076 0
0.802922 -0.0500402 0
0.7502 -0.0490009 0
0.741114 -0.0466174 0
0.733744 -0.0444753 0
0.988821 -0.06708 0
0.979629 -0.0626384 0
0.973173 -0.0584822 0
0.930447 -0.0615626 0
0.921375 -0.0578653 0
0.914769 -0.0544417 0
0.868906 -0.0558752 0
0.859978 -0.0526158 0
0.853219 -0.0496112 0
0.973173 -0.0584822 0
0.965311 -0.0548224 0
0.959466 -0.0513466 0
0.914769 -0.0544417 0
0.906871 -0.0513009 0
0.900844 -0.0483439 0
0.853219 -0.0496112 0
0.8453 -0.0468227 0
0.839102 -0.0442153 0
0.868906 -0.0558752 0
0.859978 -0.0526158 0
0.853219 -0.0496112 0
0.802922 -0.0500402 0
0.794255 -0.0474046 0
0.787506 -0.0450118 0
0.733744 -0.0444753 0
0.725364 -0.0421743 0
0.718636 -0.0400969 0
0.853219 -0.0496112 0
0.8453 -0.0468227 0
0.839102 -0.0442153 0
0.787506 -0.0450118 0
0.779715 -0.0426914 0
0.773485 -0.0405476 0
0.718636 -0.0400969 0
0.710994 -0.0380604 0
0.704749 -0.0361951 0
1.1573 -0.0606099 0
1.15237 -0.0567138 0
1.14852 -0.0527209 0
1.11311 -0.0605728 0
1.10752 -0.056733 0
1.10317 -0.0528441 0
1.06562 -0.0571342 0
1.05945 -0.0536871 0
1.05463 -0.0502067 0
1.14852 -0.0527209 0
1.14425 -0.0502355 0
1.14044 -0.0466291 0
1.10317 -0.0528441 0
1.09832 -0.0503782 0
1.09403 -0.0468126 0
1.05463 -0.0502067 0
1.04923 -0.0479794 0
1.04449 -0.0447004 0
1.06562 -0.0571342 0
1.05945 -0.0536871 0
1.05463 -0.0502067 0
1.01412 -0.055115 0
1.00761 -0.0519868 0
1.00245 -0.0488413 0
0.959466 -0.0513466 0
0.952627 -0.0485238 0
0.947142 -0.0456975 0
1.05463 -0.0502067 0
1.04923 -0.0479794 0
1.04449 -0.0447004 0
1.00245 -0.0488413 0
0.996689 -0.0467971 0
0.991619 -0.0437257 0
0.947142 -0.0456975 0
0.941051 -0.0438494 0
0.93567 -0.041032 0
1.14044 -0.0466291 0
1.13653 -0.0466309 0
1.13261 -0.0381699 0
1.09403 -0.0468126 0
1.0896 -0.0468073 0
1.08517 -0.0383373 0
1.04449 -0.0447004 0
1.03957 -0.0447751 0
1.03466 -0.0367038 0
1.13261 -0.0381699 0
1.1286 -0.0492284 0
1.125 0 0
1.08517 -0.0383373 0
1.08053 -0.0494195 0
1.07666 0 0
1.03466 -0.0367038 0
1.02939 -0.0472986 0
1.02539 0 0
1.04449 -0.0447004 0
1.03957 -0.0447751 0
1.03466 -0.0367038 0
0.991619 -0.0437257 0
0.986343 -0.0438703 0
0.981106 -0.0360131 0
0.93567 -0.041032 0
0.930065 -0.0412147 0
0.924524 -0.0338159 0
1.03466 -0.0367038 0
1.02939 -0.0472986 0
1.02539 0 0
0.981106 -0.0360131 0
0.975445 -0.0463486 0
0.971191 0 0
0.924524 -0.0338159 0
0.918495 -0.0436153 0
0.914062 0 0
0.959466 -0.0513466 0
0.952627 -0.0485238 0
0.947142 -0.0456975 0
0.900844 -0.0483439 0
0.893876 -0.0458692 0
0.888203 -0.0433985 0
0.839102 -0.0442153 0
0.832024 -0.0420056 0
0.826179 -0.0398108 0
0.947142 -0.0456975 0
0.941051 -0.0438494 0
0.93567 -0.041032 0
0.888203 -0.0433985 0
0.88194 -0.0417631 0
0.876369 -0.0391936 0
0.826179 -0.0398108 0
0.819766 -0.0383501 0
0.814026 -0.0360251 0
0.839102 -0.0442153 0
0.832024 -0.0420056 0
0.826179 -0.0398108 0
0.773485 -0.0405476 0
0.766444 -0.0386698 0
0.760548 -0.0368125 0
0.704749 -0.0361951 0
0.697768 -0.0345406 0
0.691844 -0.0329162 0
0.826179 -0.0398108 0
0.819766 -0.0383501 0
0.814026 -0.0360251 0
0.760548 -0.0368125 0
0.754119 -0.0355623 0
0.74832 -0.0334986 0
0.691844 -0.0329162 0
0.685424 -0.031816 0
0.67959 -0.029984 0
0.93567 -0.041032 0
0.930065 -0.0412147 0
0.924524 -0.0338159 0
0.876369 -0.0391936 0
0.870577 -0.0394394 0
0.864834 -0.0323746 0
0.814026 -0.0360251 0
0.808072 -0.0362923 0
0.802152 -0.0297727 0
0.924524 -0.0338159 0
0.918495 -0.0436153 0
0.914062 0 0
0.864834 -0.0323746 0
0.858574 -0.0417989 0
0.854004 0 0
0.802152 -0.0297727 0
0.795687 -0.0385173 0
0.791016 0 0
0.814026 -0.0360251 0
0.808072 -0.0362923 0
0.802152 -0.0297727 0
0.74832 -0.0334986 0
0.742323 -0.0338174 0
0.736335 -0.0277491 0
0.67959 -0.029984 0
0.673579 -0.0302953 0
0.667547 -0.0248332 0
0.802152 -0.0297727 0
0.795687 -0.0385173 0
0.791016 0 0
0.736335 -0.0277491 0
0.729786 -0.0359669 0
0.725098 0 0
0.667547 -0.0248332 0
0.66095 -0.0322543 0
0.65625 0 0
0.767589 -0.0530864 0
0.758628 -0.0510042 0
0.7502 -0.0490009 0
0.692943 -0.0449042 0
0.684346 -0.0433762 0
0.676301 -0.0420077 0
0.614431 -0.0384702 0
0.606529 -0.0372322 0
0.598827 -0.0360453 0
0.7502 -0.0490009 0
0.741114 -0.0466174 0
0.733744 -0.0444753 0
0.676301 -0.0420077 0
0.667649 -0.0401933 0
0.660489 -0.0386175 0
0.598827 -0.0360453 0
0.590709 -0.0345035 0
0.583786 -0.0331623 0
0.614431 -0.0384702 0
0.606529 -0.0372322 0
0.598827 -0.0360453 0
0.53305 -0.0311982 0
0.525438 -0.0302942 0
0.518131 -0.0295286 0
0.445559 -0.0249324 0
0.438719 -0.0242492 0
0.431951 -0.0236109 0
0.598827 -0.0360453 0
0.590709 -0.0345035 0
0.583786 -0.0331623 0
0.518131 -0.0295286 0
0.510409 -0.0283892 0
0.503755 -0.0274552 0
0.431951 -0.0236109 0
0.424901 -0.022689 0
0.418695 -0.0219389 0
0.733744 -0.0444753 0
0.725364 -0.0421743 0
0.718636 -0.0400969 0
0.660489 -0.0386175 0
0.652442 -0.0368097 0
0.645851 -0.0352162 0
0.583786 -0.0331623 0
0.576128 -0.0316134 0
0.569712 -0.030262 0
0.718636 -0.0400969 0
0.710994 -0.0380604 0
0.704749 -0.0361951 0
0.645851 -0.0352162 0
0.638442 -0.033574 0
0.632292 -0.0320984 0
0.569712 -0.030262 0
0.562586 -0.02885 0
0.556572 -0.0275986 0
0.583786 -0.0331623 0
0.576128 -0.0316134 0
0.569712 -0.030262 0
0.503755 -0.0274552 0
0.49644 -0.0262811 0
0.490238 -0.0252998 0
0.418695 -0.0219389 0
0.411948 -0.0209844 0
0.406139 -0.0202059 0
0.569712 -0.030262 0
0.562586 -0.02885 0
0.556572 -0.0275986 0
0.490238 -0.0252998 0
0.483393 -0.0242057 0
0.47756 -0.0232701 0
0.406139 -0.0202059 0
0.399778 -0.0193122 0
0.394299 -0.0185691 0
0.445559 -0.0249324 0
0.438719 -0.0242492 0
0.431951 -0.0236109 0
0.360045 -0.0183334 0
0.353211 -0.0178525 0
0.34667 -0.0175099 0
0.254551 -0.0118219 0
0.24932 -0.0115046 0
0.244155 -0.0112369 0
0.431951 -0.0236109 0
0.424901 -0.022689 0
0.418695 -0.0219389 0
0.34667 -0.0175099 0
0.339784 -0.0168596 0
0.333724 -0.016398 0
0.244155 -0.0112369 0
0.238803 -0.0108188 0
0.233971 -0.010535 0
0.254551 -0.0118219 0
0.24932 -0.0115046 0
0.244155 -0.0112369 0
0.179981 -0.00437053 0
0.173315 -0.00411499 0
0.167033 -0.0040103 0
0 0 0
0 0 0
0 0 0
0.244155 -0.0112369 0
0.238803 -0.0108188 0
0.233971 -0.010535 0
0.167033 -0.0040103 0
0.160339 -0.00384415 0
0.154601 -0.00389151 0
0 0 0
0 0 0
0 0 0
0.418695 -0.0219389 0
0.411948 -0.0209844 0
0.406139 -0.0202059 0
0.333724 -0.016398 0
0.327134 -0.0157261 0
0.321458 -0.0152368 0
0.233971 -0.010535 0
0.22877 -0.0100848 0
0.224253 -0.0097789 0
0.406139 -0.0202059 0
0.399778 -0.0193122 0
0.394299 -0.0185691 0
0.321458 -0.0152368 0
0.315247 -0.0145943 0
0.309885 -0.0141087 0
0.224253 -0.0097789 0
0.219329 -0.00934437 0
0.215054 -0.0090374 0
0.233971 -0.010535 0
0.22877 -0.0100848 0
0.224253 -0.0097789 0
0.154601 -0.00389151 0
0.148288 -0.00370323 0
0.142911 -0.00371455 0
0 0 0
0 0 0
0 0 0
0.224253 -0.0097789 0
0.219329 -0.00934437 0
0.215054 -0.0090374 0
0.142911 -0.00371455 0
0.136997 -0.00351579 0
0.131914 -0.003493 0
0 0 0
0 0 0
0 0 0
0.704749 -0.0361951 0
0.697768 -0.0345406 0
0.691844 -0.0329162 0
0.632292 -0.0320984 0
0.625469 -0.030738 0
0.619617 -0.0294145 0
0.556572 -0.0275986 0
0.549956 -0.0264255 0
0.544219 -0.0252993 0
0.691844 -0.0329162 0
0.685424 -0.031816 0
0.67959 -0.029984 0
0.619617 -0.0294145 0
0.613307 -0.0285063 0
0.607533 -0.0269341 0
0.544219 -0.0252993 0
0.538067 -0.0245168 0
0.532398 -0.0231655 0
0.556572 -0.0275986 0
0.549956 -0.0264255 0
0.544219 -0.0252993 0
0.47756 -0.0232701 0
0.471174 -0.0223447 0
0.465598 -0.0214764 0
0.394299 -0.0185691 0
0.388334 -0.0178108 0
0.383087 -0.0171194 0
0.544219 -0.0252993 0
0.538067 -0.0245168 0
0.532398 -0.0231655 0
0.465598 -0.0214764 0
0.459637 -0.0208572 0
0.45412 -0.0197548 0
0.383087 -0.0171194 0
0.377498 -0.016612 0
0.372301 -0.0157323 0
0.67959 -0.029984 0
0.673579 -0.0302953 0
0.667547 -0.0248332 0
0.607533 -0.0269341 0
0.601602 -0.0272725 0
0.595625 -0.0223543 0
0.532398 -0.0231655 0
0.526598 -0.0234659 0
0.520717 -0.0192089 0
0.667547 -0.0248332 0
0.66095 -0.0322543 0
0.65625 0 0
0.595625 -0.0223543 0
0.589071 -0.0291081 0
0.584473 0 0
0.520717 -0.0192089 0
0.514271 -0.02505 0
0.509766 0 0
0.532398 -0.0231655 0
0.526598 -0.0234659 0
0.520717 -0.0192089 0
0.45412 -0.0197548 0
0.448487 -0.0200458 0
0.442754 -0.0164006 0
0.372301 -0.0157323 0
0.367015 -0.0159655 0
0.361592 -0.0130571 0
0.520717 -0.0192089 0
0.514271 -0.02505 0
0.509766 0 0
0.442754 -0.0164006 0
0.436447 -0.0214476 0
0.432129 0 0
0.361592 -0.0130571 0
0.355633 -0.0170558 0
0.351562 0 0
0.394299 -0.0185691 0
0.388334 -0.0178108 0
0.383087 -0.0171194 0
0.309885 -0.0141087 0
0.304055 -0.0135524 0
0.298913 -0.0130827 0
0.215054 -0.0090374 0
0.210416 -0.00865817 0
0.206315 -0.00835835 0
0.383087 -0.0171194 0
0.377498 -0.016612 0
0.372301 -0.0157323 0
0.298913 -0.0130827 0
0.293442 -0.0127076 0
0.28835 -0.0120728 0
0.206315 -0.00835835 0
0.201951 -0.00810273 0
0.197897 -0.00769706 0
0.215054 -0.0090374 0
0.210416 -0.00865817 0
0.206315 -0.00835835 0
0.131914 -0.003493 0
0.126382 -0.00330182 0
0.121493 -0.00325069 0
0 0 0
0 0 0
0 0 0
0.206315 -0.00835835 0
0.201951 -0.00810273 0
0.197897 -0.00769706 0
0.121493 -0.00325069 0
0.116304 -0.00311651 0
0.111442 -0.00301317 0
0 0 0
0 0 0
0 0 0
0.372301 -0.0157323 0
0.367015 -0.0159655 0
0.361592 -0.0130571 0
0.28835 -0.0120728 0
0.283163 -0.0122518 0
0.277867 -0.0100349 0
0.197897 -0.00769706 0
0.193774 -0.00783218 0
0.189531 -0.00642456 0
0.361592 -0.0130571 0
0.355633 -0.0170558 0
0.351562 0 0
0.277867 -0.0100349 0
0.272033 -0.0130403 0
0.268066 0 0
0.189531 -0.00642456 0
0.184901 -0.00838494 0
0.181641 0 0
0.197897 -0.00769706 0
0.193774 -0.00783218 0
0.189531 -0.00642456 0
0.111442 -0.00301317 0
0.106461 -0.00310981 0
0.101507 -0.00265309 0
0 0 0
0 0 0
0 0 0
0.189531 -0.00642456 0
0.184901 -0.00838494 0
0.181641 0 0
0.101507 -0.00265309 0
0.095985 -0.00341783 0
0.0922852 0 0
0 0 0
0 0 0
0 0 0
1.39633 -0.000620854 0
1.40244 -0.0276973 0
1.39363 -0.0531964 0
1.32048 -0.000597224 0
1.32601 -0.0259985 0
1.31969 -0.0508899 0
1.24264 -0.000591666 0
1.2479 -0.0213174 0
1.24443 -0.0414435 0
1.39363 -0.0531964 0
1.39502 -0.0785779 0
1.37489 -0.0996789 0
1.31969 -0.0508899 0
1.32165 -0.0732485 0
1.30623 -0.0948476 0
1.24443 -0.0414435 0
1.24709 -0.0603992 0
1.23645 -0.0780031 0
1.24264 -0.000591666 0
1.2479 -0.0213174 0
1.24443 -0.0414435 0
1.1708 -0.000669072 0
1.17605 -0.0169021 0
1.17386 -0.0328051 0
1.09666 -0.000611198 0
1.10163 -0.0150532 0
1.10045 -0.0291692 0
1.24443 -0.0414435 0
1.24709 -0.0603992 0
1.23645 -0.0780031 0
1.17386 -0.0328051 0
1.17685 -0.0478732 0
1.16874 -0.0623156 0
1.10045 -0.0291692 0
1.10348 -0.0425794 0
1.09764 -0.0553384 0
1.37489 -0.0996789 0
1.36606 -0.118407 0
1.34397 -0.132227 0
1.30623 -0.0948476 0
1.3001 -0.110507 0
1.28259 -0.125414 0
1.23645 -0.0780031 0
1.23302 -0.0921344 0
1.21988 -0.104714 0
1.34397 -0.132227 0
1.3284 -0.142719 0
1.30909 -0.149425 0
1.28259 -0.125414 0
1.27074 -0.133658 0
1.2549 -0.141321 0
1.21988 -0.104714 0
1.21166 -0.113038 0
1.19891 -0.120084 0
1.23645 -0.0780031 0
1.23302 -0.0921344 0
1.21988 -0.104714 0
1.16874 -0.0623156 0
1.16663 -0.0741713 0
1.15616 -0.085287 0
1.09764 -0.0553384 0
1.09666 -0.0659336 0
1.08867 -0.0757528 0
1.21988 -0.104714 0
1.21166 -0.113038 0
1.19891 -0.120084 0
1.15616 -0.085287 0
1.14992 -0.0929997 0
1.13939 -0.100036 0
1.08867 -0.0757528 0
1.0843 -0.0827466 0
1.07589 -0.08903 0
1.09666 -0.000611198 0
1.10163 -0.0150532 0
1.10045 -0.0291692 0
1.02475 -0.000653827 0
1.02967 -0.0120758 0
1.02915 -0.0232665 0
0.950357 -0.000584388 0
0.954984 -0.0107155 0
0.954892 -0.0206353 0
1.10045 -0.0291692 0
1.10348 -0.0425794 0
1.09764 -0.0553384 0
1.02915 -0.0232665 0
1.03229 -0.033996 0
1.02784 -0.0442794 0
0.954892 -0.0206353 0
0.957919 -0.030159 0
0.954631 -0.039279 0
0.950357 -0.000584388 0
0.954984 -0.0107155 0
0.954892 -0.0206353 0
0.876683 -0.000588005 0
0.881162 -0.00865355 0
0.881314 -0.0165539 0
0.80032 -0.000514119 0
0.804484 -0.00759525 0
0.804716 -0.0145284 0
0.954892 -0.0206353 0
0.957919 -0.030159 0
0.954631 -0.039279 0
0.881314 -0.0165539 0
0.884261 -0.0242128 0
0.881673 -0.0315528 0
0.804716 -0.0145284 0
0.807425 -0.0212492 0
0.805377 -0.0276887 0
1.09764 -0.0553384 0
1.09666 -0.0659336 0
1.08867 -0.0757528 0
1.02784 -0.0442794 0
1.02752 -0.0531188 0
1.0211 -0.0614037 0
0.954631 -0.039279 0
0.954809 -0.0471317 0
0.949783 -0.054483 0
1.08867 -0.0757528 0
1.0843 -0.0827466 0
1.07589 -0.08903 0
1.0211 -0.0614037 0
1.01781 -0.0676827 0
1.01079 -0.0734168 0
0.949783 -0.054483 0
0.947471 -0.0600936 0
0.94176 -0.0652065 0
0.954631 -0.039279 0
0.954809 -0.0471317 0
0.949783 -0.054483 0
0.881673 -0.0315528 0
0.882104 -0.038056 0
0.877923 -0.0441508 0
0.805377 -0.0276887 0
0.805937 -0.0333956 0
0.802477 -0.0387417 0
0.949783 -0.054483 0
0.947471 -0.0600936 0
0.94176 -0.0652065 0
0.877923 -0.0441508 0
0.876134 -0.0490384 0
0.871221 -0.0535038 0
0.802477 -0.0387417 0
0.801124 -0.0430415 0
0.796931 -0.0469634 0
1.30909 -0.149425 0
1.29142 -0.152612 0
1.27655 -0.153795 0
1.2549 -0.141321 0
1.24079 -0.143329 0
1.22823 -0.144985 0
1.19891 -0.120084 0
1.18828 -0.123159 0
1.17751 -0.125449 0
1.27655 -0.153795 0
1.26015 -0.151647 0
1.24968 -0.149118 0
1.22823 -0.144985 0
1.21458 -0.142582 0
1.20558 -0.140041 0
1.17751 -0.125449 0
1.1666 -0.124536 0
1.15844 -0.123334 0
1.19891 -0.120084 0
1.18828 -0.123159 0
1.17751 -0.125449 0
1.13939 -0.100036 0
1.13086 -0.103688 0
1.12167 -0.106845 0
1.07589 -0.08903 0
1.06944 -0.0924987 0
1.06178 -0.0954421 0
1.17751 -0.125449 0
1.1666 -0.124536 0
1.15844 -0.123334 0
1.12167 -0.106845 0
1.1126 -0.107147 0
1.10541 -0.107176 0
1.06178 -0.0954421 0
1.05457 -0.0959805 0
1.04832 -0.0962209 0
1.24968 -0.149118 0
1.23622 -0.14358 0
1.2294 -0.139074 0
1.20558 -0.140041 0
1.1939 -0.134879 0
1.18833 -0.129733 0
1.15844 -0.123334 0
1.1487 -0.119754 0
1.14314 -0.116333 0
1.2294 -0.139074 0
1.22019 -0.131362 0
1.21396 -0.127229 0
1.18833 -0.129733 0
1.17934 -0.123242 0
1.17684 -0.116677 0
1.14314 -0.116333 0
1.13558 -0.111173 0
1.13147 -0.106799 0
1.15844 -0.123334 0
1.1487 -0.119754 0
1.14314 -0.116333 0
1.10541 -0.107176 0
1.09705 -0.105073 0
1.092 -0.102895 0
1.04832 -0.0962209 0
1.0414 -0.0946124 0
1.03679 -0.092936 0
1.14314 -0.116333 0
1.13558 -0.111173 0
1.13147 -0.106799 0
1.092 -0.102895 0
1.08531 -0.0993188 0
1.08153 -0.0956994 0
1.03679 -0.092936 0
1.03109 -0.0899508 0
1.02736 -0.0871399 0
1.07589 -0.08903 0
1.06944 -0.0924987 0
1.06178 -0.0954421 0
1.01079 -0.0734168 0
1.00557 -0.0770144 0
0.998967 -0.080169 0
0.94176 -0.0652065 0
0.93773 -0.0684813 0
0.932156 -0.0713411 0
1.06178 -0.0954421 0
1.05457 -0.0959805 0
1.04832 -0.0962209 0
0.998967 -0.080169 0
0.992921 -0.0813791 0
0.987343 -0.0822949 0
0.932156 -0.0713411 0
0.927262 -0.0725351 0
0.922371 -0.0734402 0
0.94176 -0.0652065 0
0.93773 -0.0684813 0
0.932156 -0.0713411 0
0.871221 -0.0535038 0
0.867847 -0.0566232 0
0.862905 -0.0593718 0
0.796931 -0.0469634 0
0.79416 -0.0497306 0
0.78981 -0.0521576 0
0.932156 -0.0713411 0
0.927262 -0.0725351 0
0.922371 -0.0734402 0
0.862905 -0.0593718 0
0.858663 -0.060834 0
0.854183 -0.0620169 0
0.78981 -0.0521576 0
0.786194 -0.0534888 0
0.782117 -0.0545545 0
1.04832 -0.0962209 0
1.0414 -0.0946124 0
1.03679 -0.092936 0
0.987343 -0.0822949 0
0.981375 -0.0816415 0
0.977069 -0.0808426 0
0.922371 -0.0734402 0
0.917351 -0.0729931 0
0.913423 -0.0724021 0
1.03679 -0.092936 0
1.03109 -0.0899508 0
1.02736 -0.0871399 0
0.977069 -0.0808426 0
0.972055 -0.078942 0
0.968224 -0.0769234 0
0.913423 -0.0724021 0
0.909038 -0.0708174 0
0.905506 -0.0692308 0
0.922371 -0.0734402 0
0.917351 -0.0729931 0
0.913423 -0.0724021 0
0.854183 -0.0620169 0
0.849715 -0.0621047 0
0.845955 -0.0620152 0
0.782117 -0.0545545 0
0.778182 -0.0546869 0
0.774644 -0.0546523 0
0.913423 -0.0724021 0
0.909038 -0.0708174 0
0.905506 -0.0692308 0
0.845955 -0.0620152 0
0.841984 -0.0611145 0
0.838311 -0.0600472 0
0.774644 -0.0546523 0
0.770999 -0.0539006 0
0.767589 -0.0530864 0
0.80032 -0.000514119 0
0.804484 -0.00759525 0
0.804716 -0.0145284 0
0.723928 -0.00049194 0
0.727843 -0.00611571 0
0.728047 -0.0116184 0
0.644118 -0.000412 0
0.647666 -0.00522481 0
0.647737 -0.00993023 0
0.804716 -0.0145284 0
0.807425 -0.0212492 0
0.805377 -0.0276887 0
0.728047 -0.0116184 0
0.730537 -0.0169949 0
0.728741 -0.0221359 0
0.647737 -0.00993023 0
0.649899 -0.0145275 0
0.648258 -0.0189169 0
0.644118 -0.000412 0
0.647666 -0.00522481 0
0.647737 -0.00993023 0
0.565073 -0.000372344 0
0.568286 -0.00411062 0
0.56813 -0.00775886 0
0.478425 -0.000284684 0
0.481185 -0.00328366 0
0.480782 -0.00620484 0
0.647737 -0.00993023 0
0.649899 -0.0145275 0
0.648258 -0.0189169 0
0.56813 -0.00775886 0
0.569966 -0.0113475 0
0.568249 -0.0147555 0
0.480782 -0.00620484 0
0.482213 -0.00908002 0
0.480457 -0.0117973 0
0.805377 -0.0276887 0
0.805937 -0.0333956 0
0.802477 -0.0387417 0
0.728741 -0.0221359 0
0.729284 -0.0267955 0
0.726183 -0.031146 0
0.648258 -0.0189169 0
0.648698 -0.0228996 0
0.645881 -0.026608 0
0.802477 -0.0387417 0
0.801124 -0.0430415 0
0.796931 -0.0469634 0
0.726183 -0.031146 0
0.724984 -0.0347822 0
0.721147 -0.0380861 0
0.645881 -0.026608 0
0.644777 -0.0297181 0
0.641249 -0.0325295 0
0.648258 -0.0189169 0
0.648698 -0.0228996 0
0.645881 -0.026608 0
0.568249 -0.0147555 0
0.568469 -0.0179112 0
0.565639 -0.0208235 0
0.480457 -0.0117973 0
0.480443 -0.0143221 0
0.477682 -0.0166321 0
0.645881 -0.026608 0
0.644777 -0.0297181 0
0.641249 -0.0325295 0
0.565639 -0.0208235 0
0.564408 -0.023349 0
0.560873 -0.0256042 0
0.477682 -0.0166321 0
0.476369 -0.0186558 0
0.472944 -0.0204382 0
0.478425 -0.000284684 0
0.481185 -0.00328366 0
0.480782 -0.00620484 0
0.400859 -0.00023166 0
0.40325 -0.00235626 0
0.402385 -0.00441429 0
0.289905 -0.000136122 0
0.291648 -0.00157718 0
0.290693 -0.00296651 0
0.480782 -0.00620484 0
0.482213 -0.00908002 0
0.480457 -0.0117973 0
0.402385 -0.00441429 0
0.403383 -0.00649802 0
0.401187 -0.00843624 0
0.290693 -0.00296651 0
0.291227 -0.00429211 0
0.28933 -0.00550848 0
0.289905 -0.000136122 0