# vtk DataFile Version 3.0
#This file was generated by the deal.II library on 2025/1/1 at 20:53:04
ASCII
DATASET UNSTRUCTURED_GRID

POINTS 34560 double
1.1 1.1 0
1.03125 1.09531 0
0.9625 1.09063 0
1.09375 1.03125 0
1.02539 1.02686 0
0.957031 1.02246 0
1.0875 0.9625 0
1.01953 0.958398 0
0.951563 0.954297 0
0.9625 1.09063 0
0.89375 1.08594 0
0.825 1.08125 0
0.957031 1.02246 0
0.888672 1.01807 0
0.820312 1.01367 0
0.951563 0.954297 0
0.883594 0.950195 0
0.815625 0.946094 0
1.0875 0.9625 0
1.01953 0.958398 0
0.951563 0.954297 0
1.08125 0.89375 0
1.01367 0.889941 0
0.946094 0.886133 0
1.075 0.825 0
1.00781 0.821484 0
0.940625 0.817969 0
0.951563 0.954297 0
0.883594 0.950195 0
0.815625 0.946094 0
0.946094 0.886133 0
0.878516 0.882324 0
0.810938 0.878516 0
0.940625 0.817969 0
0.873438 0.814453 0
0.80625 0.810937 0
0.825 1.08125 0
0.75625 1.07656 0
0.6875 1.07187 0
0.820312 1.01367 0
0.751953 1.00928 0
0.683594 1.00488 0
0.815625 0.946094 0
0.747656 0.941992 0
0.679688 0.937891 0
0.6875 1.07187 0
0.61875 1.06719 0
0.55 1.0625 0
0.683594 1.00488 0
0.615234 1.00049 0
0.546875 0.996094 0
0.679688 0.937891 0
0.611719 0.933789 0
0.54375 0.929688 0
0.815625 0.946094 0
0.747656 0.941992 0
0.679688 0.937891 0
0.810938 0.878516 0
0.743359 0.874707 0
0.675781 0.870898 0
0.80625 0.810937 0
0.739063 0.807422 0
0.671875 0.803906 0
0.679688 0.937891 0
0.611719 0.933789 0
0.54375 0.929688 0
0.675781 0.870898 0
0.608203 0.86709 0
0.540625 0.863281 0
0.671875 0.803906 0
0.604688 0.800391 0
0.5375 0.796875 0
1.075 0.825 0
1.00781 0.821484 0
0.940625 0.817969 0
1.06875 0.75625 0
1.00195 0.753027 0
0.935156 0.749805 0
1.0625 0.6875 0
0.996094 0.68457 0
0.929688 0.681641 0
0.940625 0.817969 0
0.873438 0.814453 0
0.80625 0.810937 0
0.935156 0.749805 0
0.868359 0.746582 0
0.801563 0.743359 0
0.929688 0.681641 0
0.863281 0.678711 0
0.796875 0.675781 0
1.0625 0.6875 0
0.996094 0.68457 0
0.929688 0.681641 0
1.05625 0.61875 0
0.990234 0.616113 0
0.924219 0.613477 0
1.05 0.55 0
0.984375 0.547656 0
0.91875 0.545313 0
0.929688 0.681641 0
0.863281 0.678711 0
0.796875 0.675781 0
0.924219 0.613477 0
0.858203 0.61084 0
0.792188 0.608203 0
0.91875 0.545313 0
0.853125 0.542969 0
0.7875 0.540625 0
0.80625 0.810937 0
0.739063 0.807422 0
0.671875 0.803906 0
0.801563 0.743359 0
0.734766 0.740137 0
0.667969 0.736914 0
0.796875 0.675781 0
0.730469 0.672852 0
0.664062 0.669922 0
0.671875 0.803906 0
0.604688 0.800391 0
0.5375 0.796875 0
0.667969 0.736914 0
0.601172 0.733691 0
0.534375 0.730469 0
0.664062 0.669922 0
0.597656 0.666992 0
0.53125 0.664062 0
0.796875 0.675781 0
0.730469 0.672852 0
0.664062 0.669922 0
0.792188 0.608203 0
0.726172 0.605566 0
0.660156 0.60293 0
0.7875 0.540625 0
0.721875 0.538281 0
0.65625 0.535937 0
0.664062 0.669922 0
0.597656 0.666992 0
0.53125 0.664062 0
0.660156 0.60293 0
0.594141 0.600293 0
0.528125 0.597656 0
0.65625 0.535937 0
0.590625 0.533594 0
0.525 0.53125 0
0.55 1.0625 0
0.48125 1.05781 0
0.4125 1.05313 0
0.546875 0.996094 0
0.478516 0.991699 0
0.410156 0.987305 0
0.54375 0.929688 0
0.475781 0.925586 0
0.407813 0.921484 0
0.4125 1.05313 0
0.34375 1.04844 0
0.275 1.04375 0
0.410156 0.987305 0
0.341797 0.98291 0
0.273438 0.978516 0
0.407813 0.921484 0
0.339844 0.917383 0
0.271875 0.913281 0
0.54375 0.929688 0
0.475781 0.925586 0
0.407813 0.921484 0
0.540625 0.863281 0
0.473047 0.859473 0
0.405469 0.855664 0
0.5375 0.796875 0
0.470313 0.793359 0
0.403125 0.789844 0
0.407813 0.921484 0
0.339844 0.917383 0
0.271875 0.913281 0
0.405469 0.855664 0
0.337891 0.851855 0
0.270313 0.848047 0
0.403125 0.789844 0
0.335938 0.786328 0
0.26875 0.782813 0
0.275 1.04375 0
0.20625 1.03906 0
0.1375 1.03437 0
0.273438 0.978516 0
0.205078 0.974121 0
0.136719 0.969727 0
0.271875 0.913281 0
0.203906 0.90918 0
0.135938 0.905078 0
0.1375 1.03437 0
0.06875 1.02969 0
0 1.025 0
0.136719 0.969727 0
0.0683594 0.965332 0
0 0.960937 0
0.135938 0.905078 0
0.0679688 0.900977 0
0 0.896875 0
0.271875 0.913281 0
0.203906 0.90918 0
0.135938 0.905078 0
0.270313 0.848047 0
0.202734 0.844238 0
0.135156 0.84043 0
0.26875 0.782813 0
0.201563 0.779297 0
0.134375 0.775781 0
0.135938 0.905078 0
0.0679688 0.900977 0
0 0.896875 0
0.135156 0.84043 0
0.0675781 0.836621 0
0 0.832812 0
0.134375 0.775781 0
0.0671875 0.772266 0
0 0.76875 0
0.5375 0.796875 0
0.470313 0.793359 0
0.403125 0.789844 0
0.534375 0.730469 0
0.467578 0.727246 0
0.400781 0.724023 0
0.53125 0.664062 0
0.464844 0.661133 0
0.398438 0.658203 0
0.403125 0.789844 0
0.335938 0.786328 0
0.26875 0.782813 0
0.400781 0.724023 0
0.333984 0.720801 0
0.267188 0.717578 0
0.398438 0.658203 0
0.332031 0.655273 0
0.265625 0.652344 0
0.53125 0.664062 0
0.464844 0.661133 0
0.398438 0.658203 0
0.528125 0.597656 0
0.462109 0.59502 0
0.396094 0.592383 0
0.525 0.53125 0
0.459375 0.528906 0
0.39375 0.526563 0
0.398438 0.658203 0
0.332031 0.655273 0
0.265625 0.652344 0
0.396094 0.592383 0
0.330078 0.589746 0
0.264062 0.587109 0
0.39375 0.526563 0
0.328125 0.524219 0
0.2625 0.521875 0
0.26875 0.782813 0
0.201563 0.779297 0
0.134375 0.775781 0
0.267188 0.717578 0
0.200391 0.714355 0
0.133594 0.711133 0
0.265625 0.652344 0
0.199219 0.649414 0
0.132812 0.646484 0
0.134375 0.775781 0
0.0671875 0.772266 0
0 0.76875 0
0.133594 0.711133 0
0.0667969 0.70791 0
0 0.704687 0
0.132812 0.646484 0
0.0664062 0.643555 0
0 0.640625 0
0.265625 0.652344 0
0.199219 0.649414 0
0.132812 0.646484 0
0.264062 0.587109 0
0.198047 0.584473 0
0.132031 0.581836 0
0.2625 0.521875 0
0.196875 0.519531 0
0.13125 0.517187 0
0.132812 0.646484 0
0.0664062 0.643555 0
0 0.640625 0
0.132031 0.581836 0
0.0660156 0.579199 0
0 0.576562 0
0.13125 0.517187 0
0.065625 0.514844 0
0 0.5125 0
1.05 0.55 0
0.984375 0.547656 0
0.91875 0.545313 0
1.04375 0.48125 0
0.978516 0.479199 0
0.913281 0.477148 0
1.0375 0.4125 0
0.972656 0.410742 0
0.907813 0.408984 0
0.91875 0.545313 0
0.853125 0.542969 0
0.7875 0.540625 0
0.913281 0.477148 0
0.848047 0.475098 0
0.782813 0.473047 0
0.907813 0.408984 0
0.842969 0.407227 0
0.778125 0.405469 0
1.0375 0.4125 0
0.972656 0.410742 0
0.907813 0.408984 0
1.03125 0.34375 0
0.966797 0.342285 0
0.902344 0.34082 0
1.025 0.275 0
0.960937 0.273828 0
0.896875 0.272656 0
0.907813 0.408984 0
0.842969 0.407227 0
0.778125 0.405469 0
0.902344 0.34082 0
0.837891 0.339355 0
0.773438 0.337891 0
0.896875 0.272656 0
0.832812 0.271484 0
0.76875 0.270313 0
0.7875 0.540625 0
0.721875 0.538281 0
0.65625 0.535937 0
0.782813 0.473047 0
0.717578 0.470996 0
0.652344 0.468945 0
0.778125 0.405469 0
0.713281 0.403711 0
0.648438 0.401953 0
0.65625 0.535937 0
0.590625 0.533594 0
0.525 0.53125 0
0.652344 0.468945 0
0.587109 0.466895 0
0.521875 0.464844 0
0.648438 0.401953 0
0.583594 0.400195 0
0.51875 0.398438 0
0.778125 0.405469 0
0.713281 0.403711 0
0.648438 0.401953 0
0.773438 0.337891 0
0.708984 0.336426 0
0.644531 0.334961 0
0.76875 0.270313 0
0.704687 0.269141 0
0.640625 0.267969 0
0.648438 0.401953 0
0.583594 0.400195 0
0.51875 0.398438 0
0.644531 0.334961 0
0.580078 0.333496 0
0.515625 0.332031 0
0.640625 0.267969 0
0.576562 0.266797 0
0.5125 0.265625 0
1.025 0.275 0
0.960937 0.273828 0
0.896875 0.272656 0
1.01875 0.20625 0
0.955078 0.205371 0
0.891406 0.204492 0
1.0125 0.1375 0
0.949219 0.136914 0
0.885937 0.136328 0
0.896875 0.272656 0
0.832812 0.271484 0
0.76875 0.270313 0
0.891406 0.204492 0
0.827734 0.203613 0
0.764062 0.202734 0
0.885937 0.136328 0
0.822656 0.135742 0
0.759375 0.135156 0
1.0125 0.1375 0
0.949219 0.136914 0
0.885937 0.136328 0
1.00625 0.06875 0
0.943359 0.068457 0
0.880469 0.0681641 0
1 0 0
0.9375 0 0
0.875 0 0
0.885937 0.136328 0
0.822656 0.135742 0
0.759375 0.135156 0
0.880469 0.0681641 0
0.817578 0.0678711 0
0.754687 0.0675781 0
0.875 0 0
0.8125 0 0
0.75 0 0
0.76875 0.270313 0
0.704687 0.269141 0
0.640625 0.267969 0
0.764062 0.202734 0
0.700391 0.201855 0
0.636719 0.200977 0
0.759375 0.135156 0
0.696094 0.13457 0
0.632812 0.133984 0
0.640625 0.267969 0
0.576562 0.266797 0
0.5125 0.265625 0
0.636719 0.200977 0
0.573047 0.200098 0
0.509375 0.199219 0
0.632812 0.133984 0
0.569531 0.133398 0
0.50625 0.132812 0
0.759375 0.135156 0
0.696094 0.13457 0
0.632812 0.133984 0
0.754687 0.0675781 0
0.691797 0.0672852 0
0.628906 0.0669922 0
0.75 0 0
0.6875 0 0
0.625 0 0
0.632812 0.133984 0
0.569531 0.133398 0
0.50625 0.132812 0
0.628906 0.0669922 0
0.566016 0.0666992 0
0.503125 0.0664062 0
0.625 0 0
0.5625 0 0
0.5 0 0
0.525 0.53125 0
0.459375 0.528906 0
0.39375 0.526563 0
0.521875 0.464844 0
0.456641 0.462793 0
0.391406 0.460742 0
0.51875 0.398438 0
0.453906 0.39668 0
0.389063 0.394922 0
0.39375 0.526563 0
0.328125 0.524219 0
0.2625 0.521875 0
0.391406 0.460742 0
0.326172 0.458691 0
0.260938 0.456641 0
0.389063 0.394922 0
0.324219 0.393164 0
0.259375 0.391406 0
0.51875 0.398438 0
0.453906 0.39668 0
0.389063 0.394922 0
0.515625 0.332031 0
0.451172 0.330566 0
0.386719 0.329102 0
0.5125 0.265625 0
0.448437 0.264453 0
0.384375 0.263281 0
0.389063 0.394922 0
0.324219 0.393164 0
0.259375 0.391406 0
0.386719 0.329102 0
0.322266 0.327637 0
0.257812 0.326172 0
0.384375 0.263281 0
0.320312 0.262109 0
0.25625 0.260937 0
0.2625 0.521875 0
0.196875 0.519531 0
0.13125 0.517187 0
0.260938 0.456641 0
0.195703 0.45459 0
0.130469 0.452539 0
0.259375 0.391406 0
0.194531 0.389648 0
0.129688 0.387891 0
0.13125 0.517187 0
0.065625 0.514844 0
0 0.5125 0
0.130469 0.452539 0
0.0652344 0.450488 0
0 0.448437 0
0.129688 0.387891 0
0.0648438 0.386133 0
0 0.384375 0
0.259375 0.391406 0
0.194531 0.389648 0
0.129688 0.387891 0
0.257812 0.326172 0
0.193359 0.324707 0
0.128906 0.323242 0
0.25625 0.260937 0
0.192187 0.259766 0
0.128125 0.258594 0
0.129688 0.387891 0
0.0648438 0.386133 0
0 0.384375 0
0.128906 0.323242 0
0.0644531 0.321777 0
0 0.320312 0
0.128125 0.258594 0
0.0640625 0.257422 0
0 0.25625 0
0.5125 0.265625 0
0.448437 0.264453 0
0.384375 0.263281 0
0.509375 0.199219 0
0.445703 0.19834 0
0.382031 0.197461 0
0.50625 0.132812 0
0.442969 0.132227 0
0.379688 0.131641 0
0.384375 0.263281 0
0.320312 0.262109 0
0.25625 0.260937 0
0.382031 0.197461 0
0.318359 0.196582 0
0.254687 0.195703 0
[...]
POINT_DATA 34560
VECTORS v double
1.19869 -0.243365 0
1.18893 -0.214521 0
1.1809 -0.188832 0
1.16795 -0.231022 0
1.15596 -0.205229 0
1.14617 -0.181385 0
1.13243 -0.21767 0
1.11891 -0.194117 0
1.10726 -0.172164 0
1.1809 -0.188832 0
1.17406 -0.164983 0
1.16859 -0.143631 0
1.14617 -0.181385 0
1.13726 -0.159328 0
1.13018 -0.139255 0
1.10726 -0.172164 0
1.09677 -0.151789 0
1.08795 -0.133046 0
1.13243 -0.21767 0
1.11891 -0.194117 0
1.10726 -0.172164 0
1.09082 -0.201765 0
1.07583 -0.180669 0
1.06278 -0.160878 0
1.04312 -0.185902 0
1.02724 -0.167032 0
1.01317 -0.149183 0
1.10726 -0.172164 0
1.09677 -0.151789 0
1.08795 -0.133046 0
1.06278 -0.160878 0
1.05094 -0.142366 0
1.0408 -0.125233 0
1.01317 -0.149183 0
1.00039 -0.132389 0
0.989244 -0.11674 0
1.16859 -0.143631 0
1.16352 -0.124161 0
1.15945 -0.106731 0
1.13018 -0.139255 0
1.12334 -0.120859 0
1.11788 -0.104251 0
1.08795 -0.133046 0
1.07969 -0.115827 0
1.07277 -0.100143 0
1.15945 -0.106731 0
1.15537 -0.0909843 0
1.15194 -0.0768921 0
1.11788 -0.104251 0
1.11237 -0.089139 0
1.10782 -0.0755407 0
1.07277 -0.100143 0
1.06606 -0.08583 0
1.06037 -0.0728626 0
1.08795 -0.133046 0
1.07969 -0.115827 0
1.07277 -0.100143 0
1.0408 -0.125233 0
1.03136 -0.109371 0
1.0233 -0.0948401 0
0.989244 -0.11674 0
0.978919 -0.102184 0
0.969952 -0.0887723 0
1.07277 -0.100143 0
1.06606 -0.08583 0
1.06037 -0.0728626 0
1.0233 -0.0948401 0
1.01564 -0.0814985 0
1.00903 -0.0693458 0
0.969952 -0.0887723 0
0.961538 -0.0764098 0
0.954196 -0.065098 0
1.04312 -0.185902 0
1.02724 -0.167032 0
1.01317 -0.149183 0
0.990041 -0.169135 0
0.973497 -0.152398 0
0.958697 -0.136472 0
0.932119 -0.152392 0
0.915138 -0.137608 0
0.899794 -0.123462 0
1.01317 -0.149183 0
1.00039 -0.132389 0
0.989244 -0.11674 0
0.958697 -0.136472 0
0.945197 -0.121395 0
0.933273 -0.107276 0
0.899794 -0.123462 0
0.88576 -0.110016 0
0.873241 -0.0973656 0
0.932119 -0.152392 0
0.915138 -0.137608 0
0.899794 -0.123462 0
0.869202 -0.134739 0
0.851918 -0.121884 0
0.836224 -0.109538 0
0.801563 -0.117444 0
0.784173 -0.106376 0
0.7683 -0.0957031 0
0.899794 -0.123462 0
0.88576 -0.110016 0
0.873241 -0.0973656 0
0.836224 -0.109538 0
0.821827 -0.0977547 0
0.808907 -0.0866267 0
0.7683 -0.0957031 0
0.753713 -0.0854843 0
0.740554 -0.0758023 0
0.989244 -0.11674 0
0.978919 -0.102184 0
0.969952 -0.0887723 0
0.933273 -0.107276 0
0.92226 -0.0940834 0
0.912582 -0.081874 0
0.873241 -0.0973656 0
0.861707 -0.085504 0
0.851481 -0.074484 0
0.969952 -0.0887723 0
0.961538 -0.0764098 0
0.954196 -0.065098 0
0.912582 -0.081874 0
0.903582 -0.0705781 0
0.895662 -0.0602046 0
0.851481 -0.074484 0
0.842035 -0.0642623 0
0.833673 -0.054848 0
0.873241 -0.0973656 0
0.861707 -0.085504 0
0.851481 -0.074484 0
0.808907 -0.0866267 0
0.797017 -0.0761555 0
0.786419 -0.0663965 0
0.740554 -0.0758023 0
0.728463 -0.0666715 0
0.717639 -0.0581409 0
0.851481 -0.074484 0
0.842035 -0.0642623 0
0.833673 -0.054848 0
0.786419 -0.0663965 0
0.776677 -0.0573204 0
0.768024 -0.0489431 0
0.717639 -0.0581409 0
0.707733 -0.0501975 0
0.698915 -0.0428554 0
1.15194 -0.0768921 0
1.14834 -0.0641816 0
1.14514 -0.0527528 0
1.10782 -0.0755407 0
1.10315 -0.0632015 0
1.09911 -0.0520589 0
1.06037 -0.0728626 0
1.05477 -0.0610589 0
1.04989 -0.0503517 0
1.14514 -0.0527528 0
1.14173 -0.0423574 0
1.13852 -0.0328763 0
1.09911 -0.0520589 0
1.09493 -0.0418804 0
1.09115 -0.0325627 0
1.04989 -0.0503517 0
1.04505 -0.0405442 0
1.04073 -0.0315364 0
1.06037 -0.0728626 0
1.05477 -0.0610589 0
1.04989 -0.0503517 0
1.00903 -0.0693458 0
1.0027 -0.0582304 0
0.997149 -0.0481075 0
0.954196 -0.065098 0
0.947269 -0.0547226 0
0.941172 -0.0452428 0
1.04989 -0.0503517 0
1.04505 -0.0405442 0
1.04073 -0.0315364 0
0.997149 -0.0481075 0
0.991811 -0.0388052 0
0.987057 -0.030233 0
0.941172 -0.0452428 0
0.935425 -0.036516 0
0.930323 -0.0284593 0
1.13852 -0.0328763 0
1.13514 -0.0240571 0
1.13184 -0.0157726 0
1.09115 -0.0325627 0
1.08731 -0.0238765 0
1.08372 -0.0156926 0
1.04073 -0.0315364 0
1.0365 -0.0231185 0
1.03264 -0.0151778 0
1.13184 -0.0157726 0
1.12841 -0.00777751 0
1.125 0 0
1.08372 -0.0156926 0
1.08011 -0.0077803 0
1.07666 0 0
1.03264 -0.0151778 0
1.02887 -0.00749853 0
1.02539 0 0
1.04073 -0.0315364 0
1.0365 -0.0231185 0
1.03264 -0.0151778 0
0.987057 -0.030233 0
0.982537 -0.0222004 0
0.978477 -0.014609 0
0.930323 -0.0284593 0
0.925577 -0.0209024 0
0.921361 -0.0137512 0
1.03264 -0.0151778 0
1.02887 -0.00749853 0
1.02539 0 0
0.978477 -0.014609 0
0.974646 -0.00724888 0
0.971191 0 0
0.921361 -0.0137512 0
0.917485 -0.00681088 0
0.914062 0 0
0.954196 -0.065098 0
0.947269 -0.0547226 0
0.941172 -0.0452428 0
0.895662 -0.0602046 0
0.888284 -0.050663 0
0.881768 -0.0419229 0
0.833673 -0.054848 0
0.825959 -0.0461748 0
0.81913 -0.0382166 0
0.941172 -0.0452428 0
0.935425 -0.036516 0
0.930323 -0.0284593 0
0.881768 -0.0419229 0
0.875723 -0.0338649 0
0.870371 -0.0264174 0
0.81913 -0.0382166 0
0.812876 -0.0308776 0
0.807353 -0.0240934 0
0.833673 -0.054848 0
0.825959 -0.0461748 0
0.81913 -0.0382166 0
0.768024 -0.0489431 0
0.760103 -0.0412124 0
0.753087 -0.0341112 0
0.698915 -0.0428554 0
0.690897 -0.0360784 0
0.683799 -0.0298517 0
0.81913 -0.0382166 0
0.812876 -0.0308776 0
0.807353 -0.0240934 0
0.753087 -0.0341112 0
0.746727 -0.0275604 0
0.74113 -0.0215081 0
0.683799 -0.0298517 0
0.677423 -0.0241145 0
0.671831 -0.0188219 0
0.930323 -0.0284593 0
0.925577 -0.0209024 0
0.921361 -0.0137512 0
0.870371 -0.0264174 0
0.865481 -0.0194238 0
0.861184 -0.0127978 0
0.807353 -0.0240934 0
0.802381 -0.0177242 0
0.798051 -0.0116874 0
0.921361 -0.0137512 0
0.917485 -0.00681088 0
0.914062 0 0
0.861184 -0.0127978 0
0.857331 -0.0063539 0
0.854004 0 0
0.798051 -0.0116874 0
0.794244 -0.00580778 0
0.791016 0 0
0.807353 -0.0240934 0
0.802381 -0.0177242 0
0.798051 -0.0116874 0
0.74113 -0.0215081 0
0.736155 -0.0158284 0
0.731863 -0.0104458 0
0.671831 -0.0188219 0
0.666916 -0.013865 0
0.662713 -0.0091715 0
0.798051 -0.0116874 0
0.794244 -0.00580778 0
0.791016 0 0
0.731863 -0.0104458 0
0.728165 -0.00519341 0
0.725098 0 0
0.662713 -0.0091715 0
0.65915 -0.00458231 0
0.65625 0 0
0.801563 -0.117444 0
0.784173 -0.106376 0
0.7683 -0.0957031 0
0.729422 -0.0995771 0
0.711993 -0.0902444 0
0.696048 -0.0812253 0
0.652739 -0.0820832 0
0.6354 -0.0744031 0
0.619499 -0.0669674 0
0.7683 -0.0957031 0
0.753713 -0.0854843 0
0.740554 -0.0758023 0
0.696048 -0.0812253 0
0.68137 -0.0725713 0
0.668097 -0.0643577 0
0.619499 -0.0669674 0
0.604864 -0.0598229 0
0.591607 -0.0530351 0
0.652739 -0.0820832 0
0.6354 -0.0744031 0
0.619499 -0.0669674 0
0.571191 -0.0641241 0
0.554042 -0.058072 0
0.538324 -0.052217 0
0.483221 -0.0467839 0
0.466637 -0.0423136 0
0.451453 -0.0379976 0
0.619499 -0.0669674 0
0.604864 -0.0598229 0
0.591607 -0.0530351 0
0.538324 -0.052217 0
0.523866 -0.0465933 0
0.510781 -0.0412554 0
0.451453 -0.0379976 0
0.437521 -0.0338577 0
0.42494 -0.0299383 0
0.740554 -0.0758023 0
0.728463 -0.0666715 0
0.717639 -0.0581409 0
0.668097 -0.0643577 0
0.655919 -0.0566008 0
0.645 -0.0493447 0
0.591607 -0.0530351 0
0.579475 -0.0466212 0
0.568594 -0.0406192 0
0.717639 -0.0581409 0
0.707733 -0.0501975 0
0.698915 -0.0428554 0
0.645 -0.0493447 0
0.635051 -0.042583 0
0.626193 -0.0363308 0
0.568594 -0.0406192 0
0.558727 -0.0350284 0
0.549956 -0.0298615 0
0.591607 -0.0530351 0
0.579475 -0.0466212 0
0.568594 -0.0406192 0
0.510781 -0.0412554 0
0.498847 -0.0362167 0
0.488164 -0.0315079 0
0.42494 -0.0299383 0
0.413515 -0.0262464 0
0.403321 -0.022806 0
0.568594 -0.0406192 0
0.558727 -0.0350284 0
0.549956 -0.0298615 0
0.488164 -0.0315079 0
0.47853 -0.0271285 0
0.469999 -0.0230885 0
0.403321 -0.022806 0
0.394185 -0.0196148 0
0.386134 -0.0166803 0
0.483221 -0.0467839 0
0.466637 -0.0423136 0
0.451453 -0.0379976 0
0.386061 -0.0298295 0
0.370752 -0.026888 0
0.35681 -0.0240653 0
0.275226 -0.0150889 0
0.262696 -0.0135714 0
0.251358 -0.012127 0
0.451453 -0.0379976 0
0.437521 -0.0338577 0
0.42494 -0.0299383 0
0.35681 -0.0240653 0
0.344067 -0.0213712 0
0.332619 -0.0188367 0
0.251358 -0.012127 0
0.241057 -0.0107483 0
0.231865 -0.00946137 0
0.275226 -0.0150889 0
0.262696 -0.0135714 0
0.251358 -0.012127 0
0.146622 -0.00420499 0
0.139122 -0.00375376 0
0.132424 -0.00333599 0
0 0 0
0 0 0
0 0 0
0.251358 -0.012127 0
0.241057 -0.0107483 0
0.231865 -0.00946137 0
0.132424 -0.00333599 0
0.126355 -0.0029336 0
0.121 -0.00256811 0
0 0 0
0 0 0
0 0 0
0.42494 -0.0299383 0
0.413515 -0.0262464 0
0.403321 -0.022806 0
0.332619 -0.0188367 0
0.322278 -0.0164624 0
0.313104 -0.0142636 0
0.231865 -0.00946137 0
0.223616 -0.00825934 0
0.216342 -0.00715481 0
0.403321 -0.022806 0
0.394185 -0.0196148 0
0.386134 -0.0166803 0
0.313104 -0.0142636 0
0.304934 -0.0122352 0
0.29778 -0.0103816 0
0.216342 -0.00715481 0
0.209906 -0.00613952 0
0.204302 -0.00521891 0
0.231865 -0.00946137 0
0.223616 -0.00825934 0
0.216342 -0.00715481 0
0.121 -0.00256811 0
0.11621 -0.00222637 0
0.112022 -0.00192057 0
0 0 0
0 0 0
0 0 0
0.216342 -0.00715481 0
0.209906 -0.00613952 0
0.204302 -0.00521891 0
0.112022 -0.00192057 0
0.108326 -0.00163892 0
0.105122 -0.00138996 0
0 0 0
0 0 0
0 0 0
0.698915 -0.0428554 0
0.690897 -0.0360784 0
0.683799 -0.0298517 0
0.626193 -0.0363308 0
0.618192 -0.0305602 0
0.611126 -0.0252613 0
0.549956 -0.0298615 0
0.542088 -0.0250986 0
0.535163 -0.0207312 0
0.683799 -0.0298517 0
0.677423 -0.0241145 0
0.671831 -0.0188219 0
0.611126 -0.0252613 0
0.604831 -0.0203844 0
0.599339 -0.0158959 0
0.535163 -0.0207312 0
0.529047 -0.0167216 0
0.523743 -0.0130423 0
0.549956 -0.0298615 0
0.542088 -0.0250986 0
0.535163 -0.0207312 0
0.469999 -0.0230885 0
0.462402 -0.0193711 0
0.455756 -0.01597 0
0.386134 -0.0166803 0
0.379022 -0.0139877 0
0.372842 -0.0115308 0
0.535163 -0.0207312 0
0.529047 -0.0167216 0
0.523743 -0.0130423 0
0.455756 -0.01597 0
0.44994 -0.012854 0
0.444937 -0.0100035 0
0.372842 -0.0115308 0
0.367487 -0.00928455 0
0.362924 -0.00723564 0
0.671831 -0.0188219 0
0.666916 -0.013865 0
0.662713 -0.0091715 0
0.599339 -0.0158959 0
0.594562 -0.0117019 0
0.590516 -0.0077395 0
0.523743 -0.0130423 0
0.519175 -0.00961773 0
0.515344 -0.00639113 0
0.662713 -0.0091715 0
0.65915 -0.00458231 0
0.65625 0 0
0.590516 -0.0077395 0
0.587148 -0.00385825 0
0.584473 0 0
0.515344 -0.00639113 0
0.512205 -0.00322494 0
0.509766 0 0
0.523743 -0.0130423 0
0.519175 -0.00961773 0
0.515344 -0.00639113 0
0.444937 -0.0100035 0
0.44067 -0.00735841 0
0.437131 -0.00487966 0
0.362924 -0.00723564 0
0.359072 -0.00534086 0
0.35591 -0.00356846 0
0.515344 -0.00639113 0
0.512205 -0.00322494 0
0.509766 0 0
0.437131 -0.00487966 0
0.434279 -0.00244524 0
0.432129 0 0
0.35591 -0.00356846 0
0.353402 -0.00183121 0
0.351562 0 0
0.386134 -0.0166803 0
0.379022 -0.0139877 0
0.372842 -0.0115308 0
0.29778 -0.0103816 0
0.291509 -0.00868872 0
0.2861 -0.00715037 0
0.204302 -0.00521891 0
0.19942 -0.00438113 0
0.195232 -0.00362315 0
0.372842 -0.0115308 0
0.367487 -0.00928455 0
0.362924 -0.00723564 0
0.2861 -0.00715037 0
0.281456 -0.00574536 0
0.27754 -0.00446638 0
0.195232 -0.00362315 0
0.19166 -0.00293015 0
0.188669 -0.00230108 0
0.204302 -0.00521891 0
0.19942 -0.00438113 0
0.195232 -0.00362315 0
0.105122 -0.00138996 0
0.102335 -0.00116329 0
0.0999464 -0.0009617 0
0 0 0
0 0 0
0 0 0
0.195232 -0.00362315 0
0.19166 -0.00293015 0
0.188669 -0.00230108 0
0.0999464 -0.0009617 0
0.0979079 -0.000773757 0
0.0961954 -0.000606363 0
0 0 0
0 0 0
0 0 0
0.362924 -0.00723564 0
0.359072 -0.00534086 0
0.35591 -0.00356846 0
0.27754 -0.00446638 0
0.274269 -0.00327976 0
0.271621 -0.00217117 0
0.188669 -0.00230108 0
0.186198 -0.00171574 0
0.184225 -0.00115848 0
0.35591 -0.00356846 0
0.353402 -0.00183121 0
0.351562 0 0
0.271621 -0.00217117 0
0.269545 -0.00107773 0
0.268066 0 0
0.184225 -0.00115848 0
0.1827 -0.000610565 0
0.181641 0 0
0.188669 -0.00230108 0
0.186198 -0.00171574 0
0.184225 -0.00115848 0
0.0961954 -0.000606363 0
0.0947824 -0.000449872 0
0.0936807 -0.000296259 0
0 0 0
0 0 0
0 0 0
0.184225 -0.00115848 0
0.1827 -0.000610565 0
0.181641 0 0
0.0936807 -0.000296259 0
0.0928267 -0.000121223 0
0.0922852 0 0
0 0 0
0 0 0
0 0 0
1.62236 -0.479554 0
1.58348 -0.489967 0
1.54308 -0.495666 0
1.57062 -0.431929 0
1.53436 -0.44144 0
1.49705 -0.446864 0
1.51359 -0.388336 0
1.48065 -0.397293 0
1.44667 -0.402737 0
1.54308 -0.495666 0
1.50316 -0.496088 0
1.46261 -0.491644 0
1.49705 -0.446864 0
1.4601 -0.448144 0
1.42276 -0.445225 0
1.44667 -0.402737 0
1.41312 -0.404699 0
1.37929 -0.402994 0
1.51359 -0.388336 0
1.48065 -0.397293 0
1.44667 -0.402737 0
1.45767 -0.350034 0
1.42725 -0.357398 0
1.396 -0.361859 0
1.398 -0.312296 0
1.3689 -0.318862 0
1.33914 -0.322949 0
1.44667 -0.402737 0
1.41312 -0.404699 0
1.37929 -0.402994 0
1.396 -0.361859 0
1.36496 -0.363393 0
1.33364 -0.361909 0
1.33914 -0.322949 0
1.30965 -0.324579 0
1.28 -0.323643 0
1.46261 -0.491644 0
1.42525 -0.482493 0
1.38855 -0.468884 0
1.42276 -0.445225 0
1.38801 -0.438266 0
1.35391 -0.427771 0
1.37929 -0.402994 0
1.34753 -0.397914 0
1.31632 -0.389602 0
1.38855 -0.468884 0
1.35601 -0.452284 0
1.32519 -0.432575 0
1.35391 -0.427771 0
1.32334 -0.414232 0
1.2943 -0.398002 0
1.31632 -0.389602 0
1.28788 -0.378524 0
1.26073 -0.364912 0
1.37929 -0.402994 0
1.34753 -0.397914 0
1.31632 -0.389602 0
1.33364 -0.361909 0
1.30385 -0.357621 0
1.27444 -0.35061 0
1.28 -0.323643 0
1.25164 -0.320314 0
1.22374 -0.314665 0
1.31632 -0.389602 0
1.28788 -0.378524 0
1.26073 -0.364912 0
1.27444 -0.35061 0
1.24726 -0.341275 0
1.22112 -0.329774 0
1.22374 -0.314665 0
1.19774 -0.306992 0
1.17276 -0.297409 0
1.398 -0.312296 0
1.3689 -0.318862 0
1.33914 -0.322949 0
1.33417 -0.277643 0
1.30643 -0.283675 0
1.27814 -0.28751 0
1.269 -0.244166 0
1.24239 -0.249735 0
1.21529 -0.253392 0
1.33914 -0.322949 0
1.30965 -0.324579 0
1.28 -0.323643 0
1.27814 -0.28751 0
1.25018 -0.289178 0
1.22212 -0.288613 0
1.21529 -0.253392 0
1.18847 -0.255165 0
1.16158 -0.254991 0
1.269 -0.244166 0
1.24239 -0.249735 0
1.21529 -0.253392 0
1.20194 -0.212126 0
1.17611 -0.217102 0
1.14983 -0.220422 0
1.13187 -0.181063 0
1.10657 -0.185602 0
1.08083 -0.188721 0
1.21529 -0.253392 0
1.18847 -0.255165 0
1.16158 -0.254991 0
1.14983 -0.220422 0
1.1238 -0.222128 0
1.09771 -0.222161 0
1.08083 -0.188721 0
1.05536 -0.190463 0
1.02985 -0.190771 0
1.28 -0.323643 0
1.25164 -0.320314 0
1.22374 -0.314665 0
1.22212 -0.288613 0
1.1952 -0.285961 0
1.16872 -0.281269 0
1.16158 -0.254991 0
1.13565 -0.252995 0
1.11013 -0.249209 0
1.22374 -0.314665 0
1.19774 -0.306992 0
1.17276 -0.297409 0
1.16872 -0.281269 0
1.14384 -0.274788 0
1.11989 -0.266607 0
1.11013 -0.249209 0
1.08597 -0.243846 0
1.06267 -0.236978 0
1.16158 -0.254991 0
1.13565 -0.252995 0
1.11013 -0.249209 0
1.09771 -0.222161 0
1.07246 -0.220642 0
1.04759 -0.217581 0
1.02985 -0.190771 0
1.00508 -0.189748 0
0.9807 -0.187394 0
1.11013 -0.249209 0
1.08597 -0.243846 0
1.06267 -0.236978 0
1.04759 -0.217581 0
1.02392 -0.213166 0
1.00104 -0.207435 0
0.9807 -0.187394 0
0.95739 -0.183863 0
0.934839 -0.179183 0
1.32519 -0.432575 0
1.29901 -0.411171 0
1.27518 -0.38761 0
1.2943 -0.398002 0
1.26931 -0.379741 0
1.24642 -0.359896 0
1.26073 -0.364912 0
1.23678 -0.34942 0
1.21465 -0.332303 0
1.27518 -0.38761 0
1.25541 -0.363629 0
1.23812 -0.338878 0
1.24642 -0.359896 0
1.227 -0.339135 0
1.20992 -0.317527 0
1.21465 -0.332303 0
1.1954 -0.314098 0
1.17818 -0.295003 0
1.26073 -0.364912 0
1.23678 -0.34942 0
1.21465 -0.332303 0
1.22112 -0.329774 0
1.19768 -0.31661 0
1.17582 -0.301946 0
1.17276 -0.297409 0
1.1501 -0.286292 0
1.12891 -0.273816 0
1.21465 -0.332303 0
1.1954 -0.314098 0
1.17818 -0.295003 0
1.17582 -0.301946 0
1.1565 -0.286293 0
1.13906 -0.269817 0
1.12891 -0.273816 0
1.10996 -0.26037 0
1.09273 -0.246095 0
1.23812 -0.338878 0
1.22438 -0.314343 0
1.21348 -0.289792 0
1.20992 -0.317527 0
1.19596 -0.295607 0
1.18447 -0.273706 0
1.17818 -0.295003 0
1.1636 -0.275552 0
1.15119 -0.255961 0
1.21348 -0.289792 0
1.20496 -0.266107 0
1.19869 -0.243365 0
1.18447 -0.273706 0
1.17508 -0.252182 0
1.16795 -0.231022 0
1.15119 -0.255961 0
1.14077 -0.236587 0
1.13243 -0.21767 0
1.17818 -0.295003 0
1.1636 -0.275552 0
1.15119 -0.255961 0
1.13906 -0.269817 0
1.12405 -0.252938 0
1.11107 -0.235794 0
1.09273 -0.246095 0
1.07766 -0.231323 0
1.06444 -0.216214 0
1.15119 -0.255961 0
1.14077 -0.236587 0
1.13243 -0.21767 0
1.11107 -0.235794 0
1.09998 -0.218687 0
1.09082 -0.201765 0
1.06444 -0.216214 0
1.0529 -0.201019 0
1.04312 -0.185902 0
1.17276 -0.297409 0
1.1501 -0.286292 0
1.12891 -0.273816 0
1.11989 -0.266607 0
1.0979 -0.257058 0
1.07725 -0.246276 0
1.06267 -0.236978 0
1.04107 -0.228878 0
1.02068 -0.219662 0
1.12891 -0.273816 0
1.10996 -0.26037 0
1.09273 -0.246095 0
1.07725 -0.246276 0
1.0585 -0.234595 0
1.04131 -0.222126 0
1.02068 -0.219662 0
1.00201 -0.209607 0
0.98478 -0.19882 0
1.06267 -0.236978 0
1.04107 -0.228878 0
1.02068 -0.219662 0
1.00104 -0.207435 0
0.97968 -0.200625 0
0.959459 -0.192817 0
0.934839 -0.179183 0
0.913625 -0.173546 0
0.893491 -0.167025 0
1.02068 -0.219662 0
1.00201 -0.209607 0
0.98478 -0.19882 0
0.959459 -0.192817 0
0.940777 -0.18425 0
0.923458 -0.175006 0
0.893491 -0.167025 0
0.874746 -0.159809 0
0.857288 -0.151978 0
1.09273 -0.246095 0
1.07766 -0.231323 0
1.06444 -0.216214 0
1.04131 -0.222126 0
1.02604 -0.209179 0
1.01245 -0.195903 0
0.98478 -0.19882 0
0.969299 -0.187564 0
0.955401 -0.175965 0
1.06444 -0.216214 0
1.0529 -0.201019 0
1.04312 -0.185902 0
1.01245 -0.195903 0
1.00042 -0.182525 0
0.990041 -0.169135 0
0.955401 -0.175965 0
0.942979 -0.164208 0
0.932119 -0.152392 0
0.98478 -0.19882 0
0.969299 -0.187564 0
0.955401 -0.175965 0
0.923458 -0.175006 0
0.907723 -0.165309 0
0.893476 -0.155266 0
0.857288 -0.151978 0
0.841282 -0.143712 0
0.826693 -0.135117 0
0.955401 -0.175965 0
0.942979 -0.164208 0
0.932119 -0.152392 0
0.893476 -0.155266 0
0.880604 -0.145045 0
0.869202 -0.134739 0
0.826693 -0.135117 0
0.813415 -0.126333 0
0.801563 -0.117444 0
1.13187 -0.181063 0
1.10657 -0.185602 0
1.08083 -0.188721 0
1.0596 -0.151561 0
1.03468 -0.155619 0
1.00937 -0.158458 0
0.98417 -0.122559 0
0.959567 -0.126203 0
0.934525 -0.128819 0
1.08083 -0.188721 0
1.05536 -0.190463 0
1.02985 -0.190771 0
1.00937 -0.158458 0
0.984289 -0.160117 0
0.959171 -0.160547 0
0.934525 -0.128819 0
0.909691 -0.130444 0
0.884798 -0.131036 0
0.98417 -0.122559 0
0.959567 -0.126203 0
0.934525 -0.128819 0
0.903039 -0.0945131 0
0.87891 -0.097663 0
0.854291 -0.0999705 0
0.809244 -0.0675048 0
0.786171 -0.0701197 0
0.762479 -0.0720836 0
0.934525 -0.128819 0
0.909691 -0.130444 0
0.884798 -0.131036 0
0.854291 -0.0999705 0
0.829803 -0.101467 0
0.805208 -0.10212 0
0.762479 -0.0720836 0
0.738814 -0.0734248 0
0.714952 -0.0741111 0
1.02985 -0.190771 0
1.00508 -0.189748 0
0.9807 -0.187394 0
0.959171 -0.160547 0
0.934715 -0.15984 0
0.910613 -0.157996 0
0.884798 -0.131036 0
0.860489 -0.130674 0
0.836508 -0.129354 0
0.9807 -0.187394 0
0.95739 -0.183863 0
0.934839 -0.179183 0
0.910613 -0.157996 0
0.887465 -0.155148 0
0.865032 -0.151316 0
0.836508 -0.129354 0
0.813386 -0.127188 0
0.790946 -0.124192 0
0.884798 -0.131036 0
0.860489 -0.130674 0
0.836508 -0.129354 0
0.805208 -0.10212 0
0.781102 -0.101997 0
0.757278 -0.10109 0
0.714952 -0.0741111 0
0.691464 -0.074198 0
0.668186 -0.0736761 0
0.836508 -0.129354 0
0.813386 -0.127188 0
0.790946 -0.124192 0
0.757278 -0.10109 0
0.734213 -0.0994936 0
0.711783 -0.0972168 0
0.668186 -0.0736761 0
0.645554 -0.0726197 0
0.623496 -0.0710341 0
0.809244 -0.0675048 0
0.786171 -0.0701197 0
0.762479 -0.0720836 0
0.691313 -0.0427108 0
0.670515 -0.0446333 0
0.648952 -0.0461014 0
0.529591 -0.0207072 0
0.513047 -0.0218608 0
0.495636 -0.0227622 0
0.762479 -0.0720836 0
0.738814 -0.0734248 0
0.714952 -0.0741111 0
0.648952 -0.0461014 0
0.627232 -0.0471359 0
0.605183 -0.0477098 0
0.495636 -0.0227622 0
0.477909 -0.0234337 0
0.45975 -0.0238466 0
0.529591 -0.0207072 0
0.513047 -0.0218608 0
0.495636 -0.0227622 0
0.303059 -0.00599126 0
0.293348 -0.00635741 0
0.282932 -0.00663318 0
0 0 0
0 0 0
0 0 0
0.495636 -0.0227622 0
0.477909 -0.0234337 0
0.45975 -0.0238466 0
0.282932 -0.00663318 0
0.27222 -0.00684636 0
0.261124 -0.00696369 0
0 0 0
0 0 0
0 0 0
0.714952 -0.0741111 0
0.691464 -0.074198 0
0.668186 -0.0736761 0
0.605183 -0.0477098 0
0.583338 -0.0478658 0
0.561592 -0.0475923 0
0.45975 -0.0238466 0
0.441616 -0.024035 0