# vtk DataFile Version 3.0
#This file was generated by the deal.II library on 2025/1/8 at 3:11:41
ASCII
DATASET UNSTRUCTURED_GRID

POINTS 34560 double
1.1 1.1 0
1.03125 1.09531 0
0.9625 1.09063 0
1.09375 1.03125 0
1.02539 1.02686 0
0.957031 1.02246 0
1.0875 0.9625 0
1.01953 0.958398 0
0.951563 0.954297 0
0.9625 1.09063 0
0.89375 1.08594 0
0.825 1.08125 0
0.957031 1.02246 0
0.888672 1.01807 0
0.820312 1.01367 0
0.951563 0.954297 0
0.883594 0.950195 0
0.815625 0.946094 0
1.0875 0.9625 0
1.01953 0.958398 0
0.951563 0.954297 0
1.08125 0.89375 0
1.01367 0.889941 0
0.946094 0.886133 0
1.075 0.825 0
1.00781 0.821484 0
0.940625 0.817969 0
0.951563 0.954297 0
0.883594 0.950195 0
0.815625 0.946094 0
0.946094 0.886133 0
0.878516 0.882324 0
0.810938 0.878516 0
0.940625 0.817969 0
0.873438 0.814453 0
0.80625 0.810937 0
0.825 1.08125 0
0.75625 1.07656 0
0.6875 1.07187 0
0.820312 1.01367 0
0.751953 1.00928 0
0.683594 1.00488 0
0.815625 0.946094 0
0.747656 0.941992 0
0.679688 0.937891 0
0.6875 1.07187 0
0.61875 1.06719 0
0.55 1.0625 0
0.683594 1.00488 0
0.615234 1.00049 0
0.546875 0.996094 0
0.679688 0.937891 0
0.611719 0.933789 0
0.54375 0.929688 0
0.815625 0.946094 0
0.747656 0.941992 0
0.679688 0.937891 0
0.810938 0.878516 0
0.743359 0.874707 0
0.675781 0.870898 0
0.80625 0.810937 0
0.739063 0.807422 0
0.671875 0.803906 0
0.679688 0.937891 0
0.611719 0.933789 0
0.54375 0.929688 0
0.675781 0.870898 0
0.608203 0.86709 0
0.540625 0.863281 0
0.671875 0.803906 0
0.604688 0.800391 0
0.5375 0.796875 0
1.075 0.825 0
1.00781 0.821484 0
0.940625 0.817969 0
1.06875 0.75625 0
1.00195 0.753027 0
0.935156 0.749805 0
1.0625 0.6875 0
0.996094 0.68457 0
0.929688 0.681641 0
0.940625 0.817969 0
0.873438 0.814453 0
0.80625 0.810937 0
0.935156 0.749805 0
0.868359 0.746582 0
0.801563 0.743359 0
0.929688 0.681641 0
0.863281 0.678711 0
0.796875 0.675781 0
1.0625 0.6875 0
0.996094 0.68457 0
0.929688 0.681641 0
1.05625 0.61875 0
0.990234 0.616113 0
0.924219 0.613477 0
1.05 0.55 0
0.984375 0.547656 0
0.91875 0.545313 0
0.929688 0.681641 0
0.863281 0.678711 0
0.796875 0.675781 0
0.924219 0.613477 0
0.858203 0.61084 0
0.792188 0.608203 0
0.91875 0.545313 0
0.853125 0.542969 0
0.7875 0.540625 0
0.80625 0.810937 0
0.739063 0.807422 0
0.671875 0.803906 0
0.801563 0.743359 0
0.734766 0.740137 0
0.667969 0.736914 0
0.796875 0.675781 0
0.730469 0.672852 0
0.664062 0.669922 0
0.671875 0.803906 0
0.604688 0.800391 0
0.5375 0.796875 0
0.667969 0.736914 0
0.601172 0.733691 0
0.534375 0.730469 0
0.664062 0.669922 0
0.597656 0.666992 0
0.53125 0.664062 0
0.796875 0.675781 0
0.730469 0.672852 0
0.664062 0.669922 0
0.792188 0.608203 0
0.726172 0.605566 0
0.660156 0.60293 0
0.7875 0.540625 0
0.721875 0.538281 0
0.65625 0.535937 0
0.664062 0.669922 0
0.597656 0.666992 0
0.53125 0.664062 0
0.660156 0.60293 0
0.594141 0.600293 0
0.528125 0.597656 0
0.65625 0.535937 0
0.590625 0.533594 0
0.525 0.53125 0
0.55 1.0625 0
0.48125 1.05781 0
0.4125 1.05313 0
0.546875 0.996094 0
0.478516 0.991699 0
0.410156 0.987305 0
0.54375 0.929688 0
0.475781 0.925586 0
0.407813 0.921484 0
0.4125 1.05313 0
0.34375 1.04844 0
0.275 1.04375 0
0.410156 0.987305 0
0.341797 0.98291 0
0.273438 0.978516 0
0.407813 0.921484 0
0.339844 0.917383 0
0.271875 0.913281 0
0.54375 0.929688 0
0.475781 0.925586 0
0.407813 0.921484 0
0.540625 0.863281 0
0.473047 0.859473 0
0.405469 0.855664 0
0.5375 0.796875 0
0.470313 0.793359 0
0.403125 0.789844 0
0.407813 0.921484 0
0.339844 0.917383 0
0.271875 0.913281 0
0.405469 0.855664 0
0.337891 0.851855 0
0.270313 0.848047 0
0.403125 0.789844 0
0.335938 0.786328 0
0.26875 0.782813 0
0.275 1.04375 0
0.20625 1.03906 0
0.1375 1.03437 0
0.273438 0.978516 0
0.205078 0.974121 0
0.136719 0.969727 0
0.271875 0.913281 0
0.203906 0.90918 0
0.135938 0.905078 0
0.1375 1.03437 0
0.06875 1.02969 0
0 1.025 0
0.136719 0.969727 0
0.0683594 0.965332 0
0 0.960937 0
0.135938 0.905078 0
0.0679688 0.900977 0
0 0.896875 0
0.271875 0.913281 0
0.203906 0.90918 0
0.135938 0.905078 0
0.270313 0.848047 0
0.202734 0.844238 0
0.135156 0.84043 0
0.26875 0.782813 0
0.201563 0.779297 0
0.134375 0.775781 0
0.135938 0.905078 0
0.0679688 0.900977 0
0 0.896875 0
0.135156 0.84043 0
0.0675781 0.836621 0
0 0.832812 0
0.134375 0.775781 0
0.0671875 0.772266 0
0 0.76875 0
0.5375 0.796875 0
0.470313 0.793359 0
0.403125 0.789844 0
0.534375 0.730469 0
0.467578 0.727246 0
0.400781 0.724023 0
0.53125 0.664062 0
0.464844 0.661133 0
0.398438 0.658203 0
0.403125 0.789844 0
0.335938 0.786328 0
0.26875 0.782813 0
0.400781 0.724023 0
0.333984 0.720801 0
0.267188 0.717578 0
0.398438 0.658203 0
0.332031 0.655273 0
0.265625 0.652344 0
0.53125 0.664062 0
0.464844 0.661133 0
0.398438 0.658203 0
0.528125 0.597656 0
0.462109 0.59502 0
0.396094 0.592383 0
0.525 0.53125 0
0.459375 0.528906 0
0.39375 0.526563 0
0.398438 0.658203 0
0.332031 0.655273 0
0.265625 0.652344 0
0.396094 0.592383 0
0.330078 0.589746 0
0.264062 0.587109 0
0.39375 0.526563 0
0.328125 0.524219 0
0.2625 0.521875 0
0.26875 0.782813 0
0.201563 0.779297 0
0.134375 0.775781 0
0.267188 0.717578 0
0.200391 0.714355 0
0.133594 0.711133 0
0.265625 0.652344 0
0.199219 0.649414 0
0.132812 0.646484 0
0.134375 0.775781 0
0.0671875 0.772266 0
0 0.76875 0
0.133594 0.711133 0
0.0667969 0.70791 0
0 0.704687 0
0.132812 0.646484 0
0.0664062 0.643555 0
0 0.640625 0
0.265625 0.652344 0
0.199219 0.649414 0
0.132812 0.646484 0
0.264062 0.587109 0
0.198047 0.584473 0
0.132031 0.581836 0
0.2625 0.521875 0
0.196875 0.519531 0
0.13125 0.517187 0
0.132812 0.646484 0
0.0664062 0.643555 0
0 0.640625 0
0.132031 0.581836 0
0.0660156 0.579199 0
0 0.576562 0
0.13125 0.517187 0
0.065625 0.514844 0
0 0.5125 0
1.05 0.55 0
0.984375 0.547656 0
0.91875 0.545313 0
1.04375 0.48125 0
0.978516 0.479199 0
0.913281 0.477148 0
1.0375 0.4125 0
0.972656 0.410742 0
0.907813 0.408984 0
0.91875 0.545313 0
0.853125 0.542969 0
0.7875 0.540625 0
0.913281 0.477148 0
0.848047 0.475098 0
0.782813 0.473047 0
0.907813 0.408984 0
0.842969 0.407227 0
0.778125 0.405469 0
1.0375 0.4125 0
0.972656 0.410742 0
0.907813 0.408984 0
1.03125 0.34375 0
0.966797 0.342285 0
0.902344 0.34082 0
1.025 0.275 0
0.960937 0.273828 0
0.896875 0.272656 0
0.907813 0.408984 0
0.842969 0.407227 0
0.778125 0.405469 0
0.902344 0.34082 0
0.837891 0.339355 0
0.773438 0.337891 0
0.896875 0.272656 0
0.832812 0.271484 0
0.76875 0.270313 0
0.7875 0.540625 0
0.721875 0.538281 0
0.65625 0.535937 0
0.782813 0.473047 0
0.717578 0.470996 0
0.652344 0.468945 0
0.778125 0.405469 0
0.713281 0.403711 0
0.648438 0.401953 0
0.65625 0.535937 0
0.590625 0.533594 0
0.525 0.53125 0
0.652344 0.468945 0
0.587109 0.466895 0
0.521875 0.464844 0
0.648438 0.401953 0
0.583594 0.400195 0
0.51875 0.398438 0
0.778125 0.405469 0
0.713281 0.403711 0
0.648438 0.401953 0
0.773438 0.337891 0
0.708984 0.336426 0
0.644531 0.334961 0
0.76875 0.270313 0
0.704687 0.269141 0
0.640625 0.267969 0
0.648438 0.401953 0
0.583594 0.400195 0
0.51875 0.398438 0
0.644531 0.334961 0
0.580078 0.333496 0
0.515625 0.332031 0
0.640625 0.267969 0
0.576562 0.266797 0
0.5125 0.265625 0
1.025 0.275 0
0.960937 0.273828 0
0.896875 0.272656 0
1.01875 0.20625 0
0.955078 0.205371 0
0.891406 0.204492 0
1.0125 0.1375 0
0.949219 0.136914 0
0.885937 0.136328 0
0.896875 0.272656 0
0.832812 0.271484 0
0.76875 0.270313 0
0.891406 0.204492 0
0.827734 0.203613 0
0.764062 0.202734 0
0.885937 0.136328 0
0.822656 0.135742 0
0.759375 0.135156 0
1.0125 0.1375 0
0.949219 0.136914 0
0.885937 0.136328 0
1.00625 0.06875 0
0.943359 0.068457 0
0.880469 0.0681641 0
1 0 0
0.9375 0 0
0.875 0 0
0.885937 0.136328 0
0.822656 0.135742 0
0.759375 0.135156 0
0.880469 0.0681641 0
0.817578 0.0678711 0
0.754687 0.0675781 0
0.875 0 0
0.8125 0 0
0.75 0 0
0.76875 0.270313 0
0.704687 0.269141 0
0.640625 0.267969 0
0.764062 0.202734 0
0.700391 0.201855 0
0.636719 0.200977 0
0.759375 0.135156 0
0.696094 0.13457 0
0.632812 0.133984 0
0.640625 0.267969 0
0.576562 0.266797 0
0.5125 0.265625 0
0.636719 0.200977 0
0.573047 0.200098 0
0.509375 0.199219 0
0.632812 0.133984 0
0.569531 0.133398 0
0.50625 0.132812 0
0.759375 0.135156 0
0.696094 0.13457 0
0.632812 0.133984 0
0.754687 0.0675781 0
0.691797 0.0672852 0
0.628906 0.0669922 0
0.75 0 0
0.6875 0 0
0.625 0 0
0.632812 0.133984 0
0.569531 0.133398 0
0.50625 0.132812 0
0.628906 0.0669922 0
0.566016 0.0666992 0
0.503125 0.0664062 0
0.625 0 0
0.5625 0 0
0.5 0 0
0.525 0.53125 0
0.459375 0.528906 0
0.39375 0.526563 0
0.521875 0.464844 0
0.456641 0.462793 0
0.391406 0.460742 0
0.51875 0.398438 0
0.453906 0.39668 0
0.389063 0.394922 0
0.39375 0.526563 0
0.328125 0.524219 0
0.2625 0.521875 0
0.391406 0.460742 0
0.326172 0.458691 0
0.260938 0.456641 0
0.389063 0.394922 0
0.324219 0.393164 0
0.259375 0.391406 0
0.51875 0.398438 0
0.453906 0.39668 0
0.389063 0.394922 0
0.515625 0.332031 0
0.451172 0.330566 0
0.386719 0.329102 0
0.5125 0.265625 0
0.448437 0.264453 0
0.384375 0.263281 0
0.389063 0.394922 0
0.324219 0.393164 0
0.259375 0.391406 0
0.386719 0.329102 0
0.322266 0.327637 0
0.257812 0.326172 0
0.384375 0.263281 0
0.320312 0.262109 0
0.25625 0.260937 0
0.2625 0.521875 0
0.196875 0.519531 0
0.13125 0.517187 0
0.260938 0.456641 0
0.195703 0.45459 0
0.130469 0.452539 0
0.259375 0.391406 0
0.194531 0.389648 0
0.129688 0.387891 0
0.13125 0.517187 0
0.065625 0.514844 0
0 0.5125 0
0.130469 0.452539 0
0.0652344 0.450488 0
0 0.448437 0
0.129688 0.387891 0
0.0648438 0.386133 0
0 0.384375 0
0.259375 0.391406 0
0.194531 0.389648 0
0.129688 0.387891 0
0.257812 0.326172 0
0.193359 0.324707 0
0.128906 0.323242 0
0.25625 0.260937 0
0.192187 0.259766 0
0.128125 0.258594 0
0.129688 0.387891 0
0.0648438 0.386133 0
0 0.384375 0
0.128906 0.323242 0
0.0644531 0.321777 0
0 0.320312 0
0.128125 0.258594 0
0.0640625 0.257422 0
0 0.25625 0
0.5125 0.265625 0
0.448437 0.264453 0
0.384375 0.263281 0
0.509375 0.199219 0
0.445703 0.19834 0
0.382031 0.197461 0
0.50625 0.132812 0
0.442969 0.132227 0
0.379688 0.131641 0
0.384375 0.263281 0
0.320312 0.262109 0
0.25625 0.260937 0
0.382031 0.197461 0
0.318359 0.196582 0
0.254687 0.195703 0
[...]
POINT_DATA 34560
VECTORS v double
1.21833 -0.241978 0
1.20679 -0.218253 0
1.19683 -0.197305 0
1.18705 -0.228252 0
1.17347 -0.207609 0
1.16188 -0.188448 0
1.1511 -0.21389 0
1.13616 -0.195375 0
1.12281 -0.178003 0
1.19683 -0.197305 0
1.18824 -0.177563 0
1.18098 -0.159778 0
1.16188 -0.188448 0
1.1513 -0.170489 0
1.14248 -0.153963 0
1.12281 -0.178003 0
1.11075 -0.161656 0
1.10024 -0.146401 0
1.1511 -0.21389 0
1.13616 -0.195375 0
1.12281 -0.178003 0
1.10898 -0.196874 0
1.09274 -0.180692 0
1.07812 -0.165379 0
1.06066 -0.180304 0
1.04372 -0.166152 0
1.02824 -0.152614 0
1.12281 -0.178003 0
1.11075 -0.161656 0
1.10024 -0.146401 0
1.07812 -0.165379 0
1.0648 -0.150816 0
1.05303 -0.137122 0
1.02824 -0.152614 0
1.01409 -0.13964 0
1.0014 -0.127331 0
1.18098 -0.159778 0
1.17424 -0.143149 0
1.16857 -0.127883 0
1.14248 -0.153963 0
1.13401 -0.138409 0
1.12698 -0.124002 0
1.10024 -0.146401 0
1.09038 -0.132004 0
1.0819 -0.118515 0
1.16857 -0.127883 0
1.16293 -0.113502 0
1.15808 -0.100006 0
1.12698 -0.124002 0
1.11991 -0.110292 0
1.11396 -0.0973681 0
1.0819 -0.118515 0
1.07365 -0.105638 0
1.06655 -0.0933985 0
1.10024 -0.146401 0
1.09038 -0.132004 0
1.0819 -0.118515 0
1.05303 -0.137122 0
1.04205 -0.12406 0
1.03244 -0.111736 0
1.0014 -0.127331 0
0.989585 -0.115518 0
0.979104 -0.10429 0
1.0819 -0.118515 0
1.07365 -0.105638 0
1.06655 -0.0933985 0
1.03244 -0.111736 0
1.02325 -0.0998702 0
1.01523 -0.0885148 0
0.979104 -0.10429 0
0.96918 -0.0934204 0
0.960424 -0.0829547 0
1.06066 -0.180304 0
1.04372 -0.166152 0
1.02824 -0.152614 0
1.00705 -0.16292 0
0.989642 -0.15067 0
0.973586 -0.138859 0
0.9486 -0.145851 0
0.930958 -0.135266 0
0.914533 -0.12499 0
1.02824 -0.152614 0
1.01409 -0.13964 0
1.0014 -0.127331 0
0.973586 -0.138859 0
0.95883 -0.127445 0
0.945437 -0.116549 0
0.914533 -0.12499 0
0.899368 -0.115009 0
0.885471 -0.105429 0
0.9486 -0.145851 0
0.930958 -0.135266 0
0.914533 -0.12499 0
0.885216 -0.128026 0
0.867482 -0.119037 0
0.850891 -0.110275 0
0.817053 -0.110815 0
0.799454 -0.103244 0
0.782896 -0.0958307 0
0.914533 -0.12499 0
0.899368 -0.115009 0
0.885471 -0.105429 0
0.850891 -0.110275 0
0.835496 -0.101723 0
0.821299 -0.0934812 0
0.782896 -0.0958307 0
0.767473 -0.0885718 0
0.753165 -0.0815546 0
1.0014 -0.127331 0
0.989585 -0.115518 0
0.979104 -0.10429 0
0.945437 -0.116549 0
0.932984 -0.106028 0
0.921815 -0.0959691 0
0.885471 -0.105429 0
0.872553 -0.0961353 0
0.860862 -0.0872083 0
0.979104 -0.10429 0
0.96918 -0.0934204 0
0.960424 -0.0829547 0
0.921815 -0.0959691 0
0.911318 -0.0861764 0
0.901978 -0.0766963 0
0.860862 -0.0872083 0
0.849929 -0.0784809 0
0.840136 -0.0699923 0
0.885471 -0.105429 0
0.872553 -0.0961353 0
0.860862 -0.0872083 0
0.821299 -0.0934812 0
0.808085 -0.0854493 0
0.796051 -0.0777046 0
0.753165 -0.0815546 0
0.739828 -0.0747 0
0.72761 -0.0680743 0
0.860862 -0.0872083 0
0.849929 -0.0784809 0
0.840136 -0.0699923 0
0.796051 -0.0777046 0
0.784827 -0.070099 0
0.774724 -0.0626705 0
0.72761 -0.0680743 0
0.716234 -0.0615515 0
0.705945 -0.0551606 0
1.15808 -0.100006 0
1.15316 -0.0870475 0
1.14885 -0.0745641 0
1.11396 -0.0973681 0
1.10795 -0.0848589 0
1.10281 -0.0727849 0
1.06655 -0.0933985 0
1.05961 -0.0815102 0
1.05362 -0.0699763 0
1.14885 -0.0745641 0
1.14433 -0.0622929 0
1.14026 -0.0501593 0
1.10281 -0.0727849 0
1.09751 -0.0608495 0
1.09289 -0.0490346 0
1.05362 -0.0699763 0
1.04766 -0.0585413 0
1.04248 -0.0471848 0
1.06655 -0.0933985 0
1.05961 -0.0815102 0
1.05362 -0.0699763 0
1.01523 -0.0885148 0
1.00756 -0.0774103 0
1.00088 -0.0665808 0
0.960424 -0.0829547 0
0.952159 -0.0726733 0
0.944927 -0.0625962 0
1.05362 -0.0699763 0
1.04766 -0.0585413 0
1.04248 -0.0471848 0
1.00088 -0.0665808 0
0.994423 -0.0557925 0
0.988808 -0.0450307 0
0.944927 -0.0625962 0
0.938055 -0.0525181 0
0.932085 -0.0424261 0
1.14026 -0.0501593 0
1.13613 -0.0379761 0
1.13238 -0.0256561 0
1.09289 -0.0490346 0
1.08829 -0.037143 0
1.08426 -0.0251194 0
1.04248 -0.0471848 0
1.03749 -0.0357302 0
1.03318 -0.0241418 0
1.13238 -0.0256561 0
1.12852 -0.0130172 0
1.125 0 0
1.08426 -0.0251194 0
1.08021 -0.0127741 0
1.07666 0 0
1.03318 -0.0241418 0
1.02898 -0.0122494 0
1.02539 0 0
1.04248 -0.0471848 0
1.03749 -0.0357302 0
1.03318 -0.0241418 0
0.988808 -0.0450307 0
0.983526 -0.0341372 0
0.979015 -0.0230957 0
0.932085 -0.0424261 0
0.926573 -0.0321822 0
0.921902 -0.0217748 0
1.03318 -0.0241418 0
1.02898 -0.0122494 0
1.02539 0 0
0.979015 -0.0230957 0
0.97475 -0.0117472 0
0.971191 0 0
0.921902 -0.0217748 0
0.917591 -0.0110671 0
0.914062 0 0
0.960424 -0.0829547 0
0.952159 -0.0726733 0
0.944927 -0.0625962 0
0.901978 -0.0766963 0
0.893251 -0.0673329 0
0.885578 -0.0581097 0
0.840136 -0.0699923 0
0.831052 -0.0615722 0
0.823037 -0.0532398 0
0.944927 -0.0625962 0
0.938055 -0.0525181 0
0.932085 -0.0424261 0
0.885578 -0.0581097 0
0.878394 -0.0488417 0
0.872158 -0.0395208 0
0.823037 -0.0532398 0
0.815618 -0.0448313 0
0.809186 -0.0363367 0
0.840136 -0.0699923 0
0.831052 -0.0615722 0
0.823037 -0.0532398 0
0.774724 -0.0626705 0
0.7654 -0.0552642 0
0.757152 -0.0478998 0
0.705945 -0.0551606 0
0.696484 -0.0487651 0
0.688094 -0.0423785 0
0.823037 -0.0532398 0
0.815618 -0.0448313 0
0.809186 -0.0363367 0
0.757152 -0.0478998 0
0.749587 -0.0404264 0
0.74304 -0.0328368 0
0.688094 -0.0423785 0
0.680455 -0.0358649 0
0.673855 -0.0292131 0
0.932085 -0.0424261 0
0.926573 -0.0321822 0
0.921902 -0.0217748 0
0.872158 -0.0395208 0
0.866492 -0.0300196 0
0.861728 -0.0203362 0
0.809186 -0.0363367 0
0.803418 -0.0276423 0
0.798606 -0.0187493 0
0.921902 -0.0217748 0
0.917591 -0.0110671 0
0.914062 0 0
0.861728 -0.0203362 0
0.857438 -0.010351 0
0.854004 0 0
0.798606 -0.0187493 0
0.794356 -0.00955676 0
0.791016 0 0
0.809186 -0.0363367 0
0.803418 -0.0276423 0
0.798606 -0.0187493 0
0.74304 -0.0328368 0
0.737236 -0.0250245 0
0.732434 -0.0169972 0
0.673855 -0.0292131 0
0.668063 -0.0223255 0
0.663313 -0.0152085 0
0.798606 -0.0187493 0
0.794356 -0.00955676 0
0.791016 0 0
0.732434 -0.0169972 0
0.72828 -0.00866906 0
0.725098 0 0
0.663313 -0.0152085 0
0.659276 -0.00779103 0
0.65625 0 0
0.817053 -0.110815 0
0.799454 -0.103244 0
0.782896 -0.0958307 0
0.744347 -0.0932992 0
0.726975 -0.0870493 0
0.710588 -0.0809212 0
0.666922 -0.0763998 0
0.649946 -0.0713668 0
0.633891 -0.0664234 0
0.782896 -0.0958307 0
0.767473 -0.0885718 0
0.753165 -0.0815546 0
0.710588 -0.0809212 0
0.695268 -0.0749087 0
0.681003 -0.0690913 0
0.633891 -0.0664234 0
0.618852 -0.0615688 0
0.604808 -0.0568713 0
0.666922 -0.0763998 0
0.649946 -0.0713668 0
0.633891 -0.0664234 0
0.584539 -0.0594403 0
0.568092 -0.0555618 0
0.552543 -0.0517575 0
0.496067 -0.0433382 0
0.480482 -0.0405505 0
0.465749 -0.0378166 0
0.633891 -0.0664234 0
0.618852 -0.0615688 0
0.604808 -0.0568713 0
0.552543 -0.0517575 0
0.537955 -0.0480207 0
0.524324 -0.0444103 0
0.465749 -0.0378166 0
0.451925 -0.0351293 0
0.439006 -0.0325379 0
0.753165 -0.0815546 0
0.739828 -0.0747 0
0.72761 -0.0680743 0
0.681003 -0.0690913 0
0.667684 -0.0634013 0
0.655434 -0.0578975 0
0.604808 -0.0568713 0
0.591681 -0.0522761 0
0.579567 -0.0478341 0
0.72761 -0.0680743 0
0.716234 -0.0615515 0
0.705945 -0.0551606 0
0.655434 -0.0578975 0
0.644033 -0.0524691 0
0.633688 -0.0471405 0
0.579567 -0.0478341 0
0.568294 -0.043452 0
0.558032 -0.0391479 0
0.604808 -0.0568713 0
0.591681 -0.0522761 0
0.579567 -0.0478341 0
0.524324 -0.0444103 0
0.511572 -0.0408792 0
0.499784 -0.0374723 0
0.439006 -0.0325379 0
0.426916 -0.0300033 0
0.415727 -0.027564 0
0.579567 -0.0478341 0
0.568294 -0.043452 0
0.558032 -0.0391479 0
0.499784 -0.0374723 0
0.488813 -0.0341116 0
0.478804 -0.0308124 0
0.415727 -0.027564 0
0.405312 -0.0251583 0
0.395792 -0.0228006 0
0.496067 -0.0433382 0
0.480482 -0.0405505 0
0.465749 -0.0378166 0
0.399706 -0.0279054 0
0.385497 -0.0261253 0
0.372094 -0.0243862 0
0.291 -0.0144015 0
0.279258 -0.0135154 0
0.268173 -0.0126531 0
0.465749 -0.0378166 0
0.451925 -0.0351293 0
0.439006 -0.0325379 0
0.372094 -0.0243862 0
0.359508 -0.0226754 0
0.347757 -0.0210319 0
0.268173 -0.0126531 0
0.257756 -0.0117981 0
0.248025 -0.0109802 0
0.291 -0.0144015 0
0.279258 -0.0135154 0
0.268173 -0.0126531 0
0.162457 -0.00418483 0
0.154974 -0.00392108 0
0.14792 -0.00367353 0
0 0 0
0 0 0
0 0 0
0.268173 -0.0126531 0
0.257756 -0.0117981 0
0.248025 -0.0109802 0
0.14792 -0.00367353 0
0.141256 -0.00342438 0
0.135036 -0.00319565 0
0 0 0
0 0 0
0 0 0
0.439006 -0.0325379 0
0.426916 -0.0300033 0
0.415727 -0.027564 0
0.347757 -0.0210319 0
0.336755 -0.0194225 0
0.326571 -0.0178784 0
0.248025 -0.0109802 0
0.238902 -0.0101713 0
0.230447 -0.009398 0
0.415727 -0.027564 0
0.405312 -0.0251583 0
0.395792 -0.0228006 0
0.326571 -0.0178784 0
0.317082 -0.0163515 0
0.308398 -0.0148584 0
0.230447 -0.009398 0
0.222557 -0.00862745 0
0.215322 -0.00787721 0
0.248025 -0.0109802 0
0.238902 -0.0101713 0
0.230447 -0.009398 0
0.135036 -0.00319565 0
0.129173 -0.00296027 0
0.123745 -0.00274304 0
0 0 0
0 0 0
0 0 0
0.230447 -0.009398 0
0.222557 -0.00862745 0
0.215322 -0.00787721 0
0.123745 -0.00274304 0
0.118646 -0.00251696 0
0.113982 -0.00230435 0
0 0 0
0 0 0
0 0 0
0.705945 -0.0551606 0
0.696484 -0.0487651 0
0.688094 -0.0423785 0
0.633688 -0.0471405 0
0.624193 -0.0417879 0
0.615758 -0.0364216 0
0.558032 -0.0391479 0
0.54862 -0.0348136 0
0.540243 -0.0304552 0
0.688094 -0.0423785 0
0.680455 -0.0358649 0
0.673855 -0.0292131 0
0.615758 -0.0364216 0
0.608121 -0.0309148 0
0.601535 -0.0252549 0
0.540243 -0.0304552 0
0.532685 -0.0259571 0
0.526179 -0.0213013 0
0.558032 -0.0391479 0
0.54862 -0.0348136 0
0.540243 -0.0304552 0
0.478804 -0.0308124 0
0.469619 -0.0274816 0
0.461427 -0.0241251 0
0.395792 -0.0228006 0
0.387043 -0.0204169 0
0.379219 -0.0180119 0
0.540243 -0.0304552 0
0.532685 -0.0259571 0
0.526179 -0.0213013 0
0.461427 -0.0241251 0
0.454051 -0.0206397 0
0.447706 -0.017004 0
0.379219 -0.0180119 0
0.372175 -0.0154994 0
0.366115 -0.0128573 0
0.673855 -0.0292131 0
0.668063 -0.0223255 0
0.663313 -0.0152085 0
0.601535 -0.0252549 0
0.595808 -0.0193485 0
0.591156 -0.0132039 0
0.526179 -0.0213013 0
0.520563 -0.0164001 0
0.516045 -0.0112567 0
0.663313 -0.0152085 0
0.659276 -0.00779103 0
0.65625 0 0
0.591156 -0.0132039 0
0.587283 -0.00675971 0
0.584473 0 0
0.516045 -0.0112567 0
0.51236 -0.00581986 0
0.509766 0 0
0.526179 -0.0213013 0
0.520563 -0.0164001 0
0.516045 -0.0112567 0
0.447706 -0.017004 0
0.442259 -0.0131342 0
0.437915 -0.00903664 0
0.366115 -0.0128573 0
0.360925 -0.0100106 0
0.356818 -0.00695331 0
0.516045 -0.0112567 0
0.51236 -0.00581986 0
0.509766 0 0
0.437915 -0.00903664 0
0.434455 -0.00466087 0
0.432129 0 0
0.356818 -0.00695331 0
0.353616 -0.00365262 0
0.351562 0 0
0.395792 -0.0228006 0
0.387043 -0.0204169 0
0.379219 -0.0180119 0
0.308398 -0.0148584 0
0.300397 -0.0133423 0
0.293225 -0.0118116 0
0.215322 -0.00787721 0
0.208636 -0.00711069 0
0.202627 -0.00633774 0
0.379219 -0.0180119 0
0.372175 -0.0154994 0
0.366115 -0.0128573 0
0.293225 -0.0118116 0
0.286757 -0.0102009 0
0.281188 -0.00849507 0
0.202627 -0.00633774 0
0.197189 -0.00551843 0
0.1925 -0.00465043 0
0.215322 -0.00787721 0
0.208636 -0.00711069 0
0.202627 -0.00633774 0
0.113982 -0.00230435 0
0.109638 -0.00207972 0
0.105753 -0.00185758 0
0 0 0
0 0 0
0 0 0
0.202627 -0.00633774 0
0.197189 -0.00551843 0
0.1925 -0.00465043 0
0.105753 -0.00185758 0
0.102198 -0.00161062 0
0.09915 -0.00135496 0
0 0 0
0 0 0
0 0 0
0.366115 -0.0128573 0
0.360925 -0.0100106 0
0.356818 -0.00695331 0
0.281188 -0.00849507 0
0.276417 -0.00662797 0
0.272673 -0.00459757 0
0.1925 -0.00465043 0
0.188482 -0.00369126 0
0.185353 -0.00261456 0
0.356818 -0.00695331 0
0.353616 -0.00365262 0
0.351562 0 0
0.272673 -0.00459757 0
0.269804 -0.00236755 0
0.268066 0 0
0.185353 -0.00261456 0
0.182996 -0.00141488 0
0.181641 0 0
0.1925 -0.00465043 0
0.188482 -0.00369126 0
0.185353 -0.00261456 0
0.09915 -0.00135496 0
0.096503 -0.00107333 0
0.0945258 -0.00074314 0
0 0 0
0 0 0
0 0 0
0.185353 -0.00261456 0
0.182996 -0.00141488 0
0.181641 0 0
0.0945258 -0.00074314 0
0.0930137 -0.000328497 0
0.0922852 0 0
0 0 0
0 0 0
0 0 0
1.64905 -0.348497 0
1.61505 -0.371915 0
1.57723 -0.390237 0
1.5831 -0.304985 0
1.5528 -0.326374 0
1.51924 -0.343237 0
1.5135 -0.268016 0
1.48776 -0.287335 0
1.45897 -0.302936 0
1.57723 -0.390237 0
1.53912 -0.402104 0
1.4987 -0.408404 0
1.51924 -0.343237 0
1.4854 -0.35517 0
1.44951 -0.362274 0
1.45897 -0.302936 0
1.42987 -0.314541 0
1.3988 -0.322043 0
1.5135 -0.268016 0
1.48776 -0.287335 0
1.45897 -0.302936 0
1.44764 -0.237642 0
1.42498 -0.253774 0
1.39972 -0.266977 0
1.37816 -0.20803 0
1.35726 -0.222141 0
1.33412 -0.233846 0
1.45897 -0.302936 0
1.42987 -0.314541 0
1.3988 -0.322043 0
1.39972 -0.266977 0
1.37388 -0.276953 0
1.34624 -0.283665 0
1.33412 -0.233846 0
1.31051 -0.242934 0
1.28536 -0.249326 0
1.4987 -0.408404 0
1.46136 -0.409043 0
1.42344 -0.404451 0
1.44951 -0.362274 0
1.41613 -0.364601 0
1.3821 -0.362784 0
1.3988 -0.322043 0
1.36952 -0.325603 0
1.3395 -0.325437 0
1.42344 -0.404451 0
1.39007 -0.396027 0
1.35741 -0.383821 0
1.3821 -0.362784 0
1.35176 -0.357271 0
1.32194 -0.348538 0
1.3395 -0.325437 0
1.31219 -0.321974 0
1.28514 -0.31553 0
1.3988 -0.322043 0
1.36952 -0.325603 0
1.3395 -0.325437 0
1.34624 -0.283665 0
1.31973 -0.28716 0
1.29239 -0.287614 0
1.28536 -0.249326 0
1.26106 -0.25305 0
1.23608 -0.254234 0
1.3395 -0.325437 0
1.31219 -0.321974 0
1.28514 -0.31553 0
1.29239 -0.287614 0
1.26705 -0.285364 0
1.24179 -0.280629 0
1.23608 -0.254234 0
1.21268 -0.253092 0
1.18934 -0.249797 0
1.37816 -0.20803 0
1.35726 -0.222141 0
1.33412 -0.233846 0
1.3063 -0.18256 0
1.28717 -0.194888 0
1.26609 -0.205195 0
1.23416 -0.15816 0
1.21636 -0.168977 0
1.19681 -0.17812 0
1.33412 -0.233846 0
1.31051 -0.242934 0
1.28536 -0.249326 0
1.26609 -0.205195 0
1.24458 -0.213286 0
1.22169 -0.219117 0
1.19681 -0.17812 0
1.17683 -0.185411 0
1.1556 -0.190803 0
1.23416 -0.15816 0
1.21636 -0.168977 0
1.19681 -0.17812 0
1.16053 -0.13575 0
1.14366 -0.145011 0
1.12524 -0.152887 0
1.08451 -0.114157 0
1.06825 -0.122159 0
1.05058 -0.129028 0
1.19681 -0.17812 0
1.17683 -0.185411 0
1.1556 -0.190803 0
1.12524 -0.152887 0
1.10639 -0.159234 0
1.08642 -0.164006 0
1.05058 -0.129028 0
1.03254 -0.134638 0
1.01349 -0.13894 0
1.28536 -0.249326 0
1.26106 -0.25305 0
1.23608 -0.254234 0
1.22169 -0.219117 0
1.19944 -0.222692 0
1.17652 -0.224102 0
1.1556 -0.190803 0
1.13482 -0.194283 0
1.1134 -0.195921 0
1.23608 -0.254234 0
1.21268 -0.253092 0
1.18934 -0.249797 0
1.17652 -0.224102 0
1.15483 -0.223517 0
1.1331 -0.221065 0
1.1134 -0.195921 0
1.09294 -0.195839 0
1.07241 -0.194143 0
1.1556 -0.190803 0
1.13482 -0.194283 0
1.1134 -0.195921 0
1.08642 -0.164006 0
1.06676 -0.167196 0
1.0465 -0.168843 0
1.01349 -0.13894 0
0.994685 -0.14192 0
0.975337 -0.143605 0
1.1134 -0.195921 0
1.09294 -0.195839 0
1.07241 -0.194143 0
1.0465 -0.168843 0
1.02701 -0.16905 0
1.00742 -0.167879 0
0.975337 -0.143605 0
0.956615 -0.144065 0
0.937796 -0.143351 0
1.35741 -0.383821 0
1.33002 -0.369481 0
1.30446 -0.352483 0
1.32194 -0.348538 0
1.29657 -0.337239 0
1.27266 -0.323985 0
1.28514 -0.31553 0
1.26148 -0.306783 0
1.23892 -0.296063 0
1.30446 -0.352483 0
1.28318 -0.334746 0
1.26415 -0.315943 0
1.27266 -0.323985 0
1.25239 -0.309448 0
1.23404 -0.293777 0
1.23892 -0.296063 0
1.21929 -0.283936 0
1.20117 -0.270643 0
1.28514 -0.31553 0
1.26148 -0.306783 0
1.23892 -0.296063 0
1.24179 -0.280629 0
1.21925 -0.273893 0
1.19754 -0.265385 0
1.18934 -0.249797 0
1.16821 -0.244691 0
1.1478 -0.238011 0
1.23892 -0.296063 0
1.21929 -0.283936 0
1.20117 -0.270643 0
1.19754 -0.265385 0
1.17831 -0.255609 0
1.1604 -0.244765 0
1.1478 -0.238011 0
1.12946 -0.230121 0
1.11223 -0.221198 0
1.26415 -0.315943 0
1.24897 -0.297165 0
1.23641 -0.278011 0
1.23404 -0.293777 0
1.21909 -0.277533 0
1.20632 -0.261035 0
1.20117 -0.270643 0
1.18586 -0.256733 0
1.1724 -0.242412 0
1.23641 -0.278011 0
1.22633 -0.259584 0
1.21833 -0.241978 0
1.20632 -0.261035 0
1.19565 -0.24461 0
1.18705 -0.228252 0
1.1724 -0.242412 0
1.16085 -0.228035 0
1.1511 -0.21389 0
1.20117 -0.270643 0
1.18586 -0.256733 0
1.1724 -0.242412 0
1.1604 -0.244765 0
1.14502 -0.233273 0
1.13128 -0.221299 0
1.11223 -0.221198 0
1.09718 -0.211567 0
1.08353 -0.201411 0
1.1724 -0.242412 0
1.16085 -0.228035 0
1.1511 -0.21389 0
1.13128 -0.221299 0
1.11932 -0.209127 0
1.10898 -0.196874 0
1.08353 -0.201411 0
1.07139 -0.190938 0
1.06066 -0.180304 0
1.18934 -0.249797 0
1.16821 -0.244691 0
1.1478 -0.238011 0
1.1331 -0.221065 0
1.11315 -0.217039 0
1.09376 -0.21162 0
1.07241 -0.194143 0
1.05332 -0.191058 0
1.03468 -0.186743 0
1.1478 -0.238011 0
1.12946 -0.230121 0
1.11223 -0.221198 0
1.09376 -0.21162 0
1.07605 -0.205117 0
1.05926 -0.197657 0
1.03468 -0.186743 0
1.01747 -0.181441 0
1.00105 -0.175274 0
1.07241 -0.194143 0
1.05332 -0.191058 0
1.03468 -0.186743 0
1.00742 -0.167879 0
0.989031 -0.165524 0
0.971014 -0.162096 0
0.937796 -0.143351 0
0.919977 -0.141609 0
0.902475 -0.138939 0
1.03468 -0.186743 0
1.01747 -0.181441 0
1.00105 -0.175274 0
0.971014 -0.162096 0
0.954218 -0.157801 0
0.938103 -0.152733 0
0.902475 -0.138939 0
0.886019 -0.1355 0
0.870163 -0.131375 0
1.11223 -0.221198 0
1.09718 -0.211567 0
1.08353 -0.201411 0
1.05926 -0.197657 0
1.04432 -0.18954 0
1.03058 -0.180936 0
1.00105 -0.175274 0
0.986244 -0.16849 0
0.972497 -0.161237 0
1.08353 -0.201411 0
1.07139 -0.190938 0
1.06066 -0.180304 0
1.03058 -0.180936 0
1.01819 -0.172038 0
1.00705 -0.16292 0
0.972497 -0.161237 0
0.959986 -0.153663 0
0.9486 -0.145851 0
1.00105 -0.175274 0
0.986244 -0.16849 0
0.972497 -0.161237 0
0.938103 -0.152733 0
0.923382 -0.1471 0
0.909596 -0.141024 0
0.870163 -0.131375 0
0.855523 -0.126736 0
0.841721 -0.121695 0
0.972497 -0.161237 0
0.959986 -0.153663 0
0.9486 -0.145851 0
0.909596 -0.141024 0
0.896907 -0.13464 0
0.885216 -0.128026 0
0.841721 -0.121695 0
0.828926 -0.116367 0
0.817053 -0.110815 0
1.08451 -0.114157 0
1.06825 -0.122159 0
1.05058 -0.129028 0
1.00668 -0.094267 0
0.990833 -0.101041 0
0.973724 -0.106885 0
0.925842 -0.0746753 0
0.910283 -0.0804043 0
0.893525 -0.0853801 0
1.05058 -0.129028 0
1.03254 -0.134638 0
1.01349 -0.13894 0
0.973724 -0.106885 0
0.956274 -0.111689 0
0.937898 -0.11541 0
0.893525 -0.0853801 0
0.876462 -0.0895121 0
0.858533 -0.092761 0
0.925842 -0.0746753 0
0.910283 -0.0804043 0
0.893525 -0.0853801 0
0.839494 -0.0561385 0
0.824375 -0.0608248 0
0.808101 -0.0649174 0
0.74201 -0.0384143 0
0.727852 -0.0421056 0
0.712488 -0.0453583 0
0.893525 -0.0853801 0
0.876462 -0.0895121 0
0.858533 -0.092761 0
0.808101 -0.0649174 0
0.791501 -0.0683398 0
0.774058 -0.0710621 0
0.712488 -0.0453583 0
0.696754 -0.0481124 0
0.68015 -0.0503398 0
1.01349 -0.13894 0
0.994685 -0.14192 0
0.975337 -0.143605 0
0.937898 -0.11541 0
0.919699 -0.118035 0
0.900993 -0.119582 0
0.858533 -0.092761 0
0.840735 -0.0951132 0
0.822462 -0.09658 0
0.975337 -0.143605 0
0.956615 -0.144065 0
0.937796 -0.143351 0
0.900993 -0.119582 0
0.882802 -0.120111 0
0.864506 -0.119655 0
0.822462 -0.09658 0
0.804629 -0.0972066 0
0.786699 -0.0970183 0
0.858533 -0.092761 0
0.840735 -0.0951132 0
0.822462 -0.09658 0
0.774058 -0.0710621 0
0.756687 -0.0730721 0
0.738844 -0.0743748 0
0.68015 -0.0503398 0
0.66354 -0.0520304 0
0.646432 -0.0531836 0
0.822462 -0.09658 0
0.804629 -0.0972066 0
0.786699 -0.0970183 0
0.738844 -0.0743748 0
0.721368 -0.0750076 0
0.703782 -0.0749856 0
0.646432 -0.0531836 0
0.629607 -0.0538289 0
0.612646 -0.0539733 0
0.74201 -0.0384143 0
0.727852 -0.0421056 0
0.712488 -0.0453583 0
0.624143 -0.02282 0
0.61206 -0.0254404 0
0.59869 -0.0277713 0
0.471543 -0.00984783 0
0.463009 -0.0113716 0
0.453151 -0.0127485 0
0.712488 -0.0453583 0
0.696754 -0.0481124 0
0.68015 -0.0503398 0
0.59869 -0.0277713 0
0.584838 -0.0297658 0
0.570029 -0.0314026 0
0.453151 -0.0127485 0
0.442708 -0.0139532 0
0.431265 -0.0149658 0
0.471543 -0.00984783 0
0.463009 -0.0113716 0
0.453151 -0.0127485 0
0.268163 -0.00253238 0
0.26438 -0.00302092 0
0.259465 -0.00346588 0
0 0 0
0 0 0
0 0 0
0.453151 -0.0127485 0
0.442708 -0.0139532 0
0.431265 -0.0149658 0
0.259465 -0.00346588 0
0.254125 -0.00385905 0
0.247872 -0.0041856 0
0 0 0
0 0 0
0 0 0
0.68015 -0.0503398 0
0.66354 -0.0520304 0
0.646432 -0.0531836 0
0.570029 -0.0314026 0
0.555089 -0.0326742 0
0.539569 -0.033575 0
0.431265 -0.0149658 0
0.419541 -0.0157867 0