# vtk DataFile Version 3.0
#This file was generated by the deal.II library on 2025/1/1 at 20:40:51
ASCII
DATASET UNSTRUCTURED_GRID

POINTS 34560 double
1.1 1.1 0
1.03125 1.09531 0
0.9625 1.09063 0
1.09375 1.03125 0
1.02539 1.02686 0
0.957031 1.02246 0
1.0875 0.9625 0
1.01953 0.958398 0
0.951563 0.954297 0
0.9625 1.09063 0
0.89375 1.08594 0
0.825 1.08125 0
0.957031 1.02246 0
0.888672 1.01807 0
0.820312 1.01367 0
0.951563 0.954297 0
0.883594 0.950195 0
0.815625 0.946094 0
1.0875 0.9625 0
1.01953 0.958398 0
0.951563 0.954297 0
1.08125 0.89375 0
1.01367 0.889941 0
0.946094 0.886133 0
1.075 0.825 0
1.00781 0.821484 0
0.940625 0.817969 0
0.951563 0.954297 0
0.883594 0.950195 0
0.815625 0.946094 0
0.946094 0.886133 0
0.878516 0.882324 0
0.810938 0.878516 0
0.940625 0.817969 0
0.873438 0.814453 0
0.80625 0.810937 0
0.825 1.08125 0
0.75625 1.07656 0
0.6875 1.07187 0
0.820312 1.01367 0
0.751953 1.00928 0
0.683594 1.00488 0
0.815625 0.946094 0
0.747656 0.941992 0
0.679688 0.937891 0
0.6875 1.07187 0
0.61875 1.06719 0
0.55 1.0625 0
0.683594 1.00488 0
0.615234 1.00049 0
0.546875 0.996094 0
0.679688 0.937891 0
0.611719 0.933789 0
0.54375 0.929688 0
0.815625 0.946094 0
0.747656 0.941992 0
0.679688 0.937891 0
0.810938 0.878516 0
0.743359 0.874707 0
0.675781 0.870898 0
0.80625 0.810937 0
0.739063 0.807422 0
0.671875 0.803906 0
0.679688 0.937891 0
0.611719 0.933789 0
0.54375 0.929688 0
0.675781 0.870898 0
0.608203 0.86709 0
0.540625 0.863281 0
0.671875 0.803906 0
0.604688 0.800391 0
0.5375 0.796875 0
1.075 0.825 0
1.00781 0.821484 0
0.940625 0.817969 0
1.06875 0.75625 0
1.00195 0.753027 0
0.935156 0.749805 0
1.0625 0.6875 0
0.996094 0.68457 0
0.929688 0.681641 0
0.940625 0.817969 0
0.873438 0.814453 0
0.80625 0.810937 0
0.935156 0.749805 0
0.868359 0.746582 0
0.801563 0.743359 0
0.929688 0.681641 0
0.863281 0.678711 0
0.796875 0.675781 0
1.0625 0.6875 0
0.996094 0.68457 0
0.929688 0.681641 0
1.05625 0.61875 0
0.990234 0.616113 0
0.924219 0.613477 0
1.05 0.55 0
0.984375 0.547656 0
0.91875 0.545313 0
0.929688 0.681641 0
0.863281 0.678711 0
0.796875 0.675781 0
0.924219 0.613477 0
0.858203 0.61084 0
0.792188 0.608203 0
0.91875 0.545313 0
0.853125 0.542969 0
0.7875 0.540625 0
0.80625 0.810937 0
0.739063 0.807422 0
0.671875 0.803906 0
0.801563 0.743359 0
0.734766 0.740137 0
0.667969 0.736914 0
0.796875 0.675781 0
0.730469 0.672852 0
0.664062 0.669922 0
0.671875 0.803906 0
0.604688 0.800391 0
0.5375 0.796875 0
0.667969 0.736914 0
0.601172 0.733691 0
0.534375 0.730469 0
0.664062 0.669922 0
0.597656 0.666992 0
0.53125 0.664062 0
0.796875 0.675781 0
0.730469 0.672852 0
0.664062 0.669922 0
0.792188 0.608203 0
0.726172 0.605566 0
0.660156 0.60293 0
0.7875 0.540625 0
0.721875 0.538281 0
0.65625 0.535937 0
0.664062 0.669922 0
0.597656 0.666992 0
0.53125 0.664062 0
0.660156 0.60293 0
0.594141 0.600293 0
0.528125 0.597656 0
0.65625 0.535937 0
0.590625 0.533594 0
0.525 0.53125 0
0.55 1.0625 0
0.48125 1.05781 0
0.4125 1.05313 0
0.546875 0.996094 0
0.478516 0.991699 0
0.410156 0.987305 0
0.54375 0.929688 0
0.475781 0.925586 0
0.407813 0.921484 0
0.4125 1.05313 0
0.34375 1.04844 0
0.275 1.04375 0
0.410156 0.987305 0
0.341797 0.98291 0
0.273438 0.978516 0
0.407813 0.921484 0
0.339844 0.917383 0
0.271875 0.913281 0
0.54375 0.929688 0
0.475781 0.925586 0
0.407813 0.921484 0
0.540625 0.863281 0
0.473047 0.859473 0
0.405469 0.855664 0
0.5375 0.796875 0
0.470313 0.793359 0
0.403125 0.789844 0
0.407813 0.921484 0
0.339844 0.917383 0
0.271875 0.913281 0
0.405469 0.855664 0
0.337891 0.851855 0
0.270313 0.848047 0
0.403125 0.789844 0
0.335938 0.786328 0
0.26875 0.782813 0
0.275 1.04375 0
0.20625 1.03906 0
0.1375 1.03437 0
0.273438 0.978516 0
0.205078 0.974121 0
0.136719 0.969727 0
0.271875 0.913281 0
0.203906 0.90918 0
0.135938 0.905078 0
0.1375 1.03437 0
0.06875 1.02969 0
0 1.025 0
0.136719 0.969727 0
0.0683594 0.965332 0
0 0.960937 0
0.135938 0.905078 0
0.0679688 0.900977 0
0 0.896875 0
0.271875 0.913281 0
0.203906 0.90918 0
0.135938 0.905078 0
0.270313 0.848047 0
0.202734 0.844238 0
0.135156 0.84043 0
0.26875 0.782813 0
0.201563 0.779297 0
0.134375 0.775781 0
0.135938 0.905078 0
0.0679688 0.900977 0
0 0.896875 0
0.135156 0.84043 0
0.0675781 0.836621 0
0 0.832812 0
0.134375 0.775781 0
0.0671875 0.772266 0
0 0.76875 0
0.5375 0.796875 0
0.470313 0.793359 0
0.403125 0.789844 0
0.534375 0.730469 0
0.467578 0.727246 0
0.400781 0.724023 0
0.53125 0.664062 0
0.464844 0.661133 0
0.398438 0.658203 0
0.403125 0.789844 0
0.335938 0.786328 0
0.26875 0.782813 0
0.400781 0.724023 0
0.333984 0.720801 0
0.267188 0.717578 0
0.398438 0.658203 0
0.332031 0.655273 0
0.265625 0.652344 0
0.53125 0.664062 0
0.464844 0.661133 0
0.398438 0.658203 0
0.528125 0.597656 0
0.462109 0.59502 0
0.396094 0.592383 0
0.525 0.53125 0
0.459375 0.528906 0
0.39375 0.526563 0
0.398438 0.658203 0
0.332031 0.655273 0
0.265625 0.652344 0
0.396094 0.592383 0
0.330078 0.589746 0
0.264062 0.587109 0
0.39375 0.526563 0
0.328125 0.524219 0
0.2625 0.521875 0
0.26875 0.782813 0
0.201563 0.779297 0
0.134375 0.775781 0
0.267188 0.717578 0
0.200391 0.714355 0
0.133594 0.711133 0
0.265625 0.652344 0
0.199219 0.649414 0
0.132812 0.646484 0
0.134375 0.775781 0
0.0671875 0.772266 0
0 0.76875 0
0.133594 0.711133 0
0.0667969 0.70791 0
0 0.704687 0
0.132812 0.646484 0
0.0664062 0.643555 0
0 0.640625 0
0.265625 0.652344 0
0.199219 0.649414 0
0.132812 0.646484 0
0.264062 0.587109 0
0.198047 0.584473 0
0.132031 0.581836 0
0.2625 0.521875 0
0.196875 0.519531 0
0.13125 0.517187 0
0.132812 0.646484 0
0.0664062 0.643555 0
0 0.640625 0
0.132031 0.581836 0
0.0660156 0.579199 0
0 0.576562 0
0.13125 0.517187 0
0.065625 0.514844 0
0 0.5125 0
1.05 0.55 0
0.984375 0.547656 0
0.91875 0.545313 0
1.04375 0.48125 0
0.978516 0.479199 0
0.913281 0.477148 0
1.0375 0.4125 0
0.972656 0.410742 0
0.907813 0.408984 0
0.91875 0.545313 0
0.853125 0.542969 0
0.7875 0.540625 0
0.913281 0.477148 0
0.848047 0.475098 0
0.782813 0.473047 0
0.907813 0.408984 0
0.842969 0.407227 0
0.778125 0.405469 0
1.0375 0.4125 0
0.972656 0.410742 0
0.907813 0.408984 0
1.03125 0.34375 0
0.966797 0.342285 0
0.902344 0.34082 0
1.025 0.275 0
0.960937 0.273828 0
0.896875 0.272656 0
0.907813 0.408984 0
0.842969 0.407227 0
0.778125 0.405469 0
0.902344 0.34082 0
0.837891 0.339355 0
0.773438 0.337891 0
0.896875 0.272656 0
0.832812 0.271484 0
0.76875 0.270313 0
0.7875 0.540625 0
0.721875 0.538281 0
0.65625 0.535937 0
0.782813 0.473047 0
0.717578 0.470996 0
0.652344 0.468945 0
0.778125 0.405469 0
0.713281 0.403711 0
0.648438 0.401953 0
0.65625 0.535937 0
0.590625 0.533594 0
0.525 0.53125 0
0.652344 0.468945 0
0.587109 0.466895 0
0.521875 0.464844 0
0.648438 0.401953 0
0.583594 0.400195 0
0.51875 0.398438 0
0.778125 0.405469 0
0.713281 0.403711 0
0.648438 0.401953 0
0.773438 0.337891 0
0.708984 0.336426 0
0.644531 0.334961 0
0.76875 0.270313 0
0.704687 0.269141 0
0.640625 0.267969 0
0.648438 0.401953 0
0.583594 0.400195 0
0.51875 0.398438 0
0.644531 0.334961 0
0.580078 0.333496 0
0.515625 0.332031 0
0.640625 0.267969 0
0.576562 0.266797 0
0.5125 0.265625 0
1.025 0.275 0
0.960937 0.273828 0
0.896875 0.272656 0
1.01875 0.20625 0
0.955078 0.205371 0
0.891406 0.204492 0
1.0125 0.1375 0
0.949219 0.136914 0
0.885937 0.136328 0
0.896875 0.272656 0
0.832812 0.271484 0
0.76875 0.270313 0
0.891406 0.204492 0
0.827734 0.203613 0
0.764062 0.202734 0
0.885937 0.136328 0
0.822656 0.135742 0
0.759375 0.135156 0
1.0125 0.1375 0
0.949219 0.136914 0
0.885937 0.136328 0
1.00625 0.06875 0
0.943359 0.068457 0
0.880469 0.0681641 0
1 0 0
0.9375 0 0
0.875 0 0
0.885937 0.136328 0
0.822656 0.135742 0
0.759375 0.135156 0
0.880469 0.0681641 0
0.817578 0.0678711 0
0.754687 0.0675781 0
0.875 0 0
0.8125 0 0
0.75 0 0
0.76875 0.270313 0
0.704687 0.269141 0
0.640625 0.267969 0
0.764062 0.202734 0
0.700391 0.201855 0
0.636719 0.200977 0
0.759375 0.135156 0
0.696094 0.13457 0
0.632812 0.133984 0
0.640625 0.267969 0
0.576562 0.266797 0
0.5125 0.265625 0
0.636719 0.200977 0
0.573047 0.200098 0
0.509375 0.199219 0
0.632812 0.133984 0
0.569531 0.133398 0
0.50625 0.132812 0
0.759375 0.135156 0
0.696094 0.13457 0
0.632812 0.133984 0
0.754687 0.0675781 0
0.691797 0.0672852 0
0.628906 0.0669922 0
0.75 0 0
0.6875 0 0
0.625 0 0
0.632812 0.133984 0
0.569531 0.133398 0
0.50625 0.132812 0
0.628906 0.0669922 0
0.566016 0.0666992 0
0.503125 0.0664062 0
0.625 0 0
0.5625 0 0
0.5 0 0
0.525 0.53125 0
0.459375 0.528906 0
0.39375 0.526563 0
0.521875 0.464844 0
0.456641 0.462793 0
0.391406 0.460742 0
0.51875 0.398438 0
0.453906 0.39668 0
0.389063 0.394922 0
0.39375 0.526563 0
0.328125 0.524219 0
0.2625 0.521875 0
0.391406 0.460742 0
0.326172 0.458691 0
0.260938 0.456641 0
0.389063 0.394922 0
0.324219 0.393164 0
0.259375 0.391406 0
0.51875 0.398438 0
0.453906 0.39668 0
0.389063 0.394922 0
0.515625 0.332031 0
0.451172 0.330566 0
0.386719 0.329102 0
0.5125 0.265625 0
0.448437 0.264453 0
0.384375 0.263281 0
0.389063 0.394922 0
0.324219 0.393164 0
0.259375 0.391406 0
0.386719 0.329102 0
0.322266 0.327637 0
0.257812 0.326172 0
0.384375 0.263281 0
0.320312 0.262109 0
0.25625 0.260937 0
0.2625 0.521875 0
0.196875 0.519531 0
0.13125 0.517187 0
0.260938 0.456641 0
0.195703 0.45459 0
0.130469 0.452539 0
0.259375 0.391406 0
0.194531 0.389648 0
0.129688 0.387891 0
0.13125 0.517187 0
0.065625 0.514844 0
0 0.5125 0
0.130469 0.452539 0
0.0652344 0.450488 0
0 0.448437 0
0.129688 0.387891 0
0.0648438 0.386133 0
0 0.384375 0
0.259375 0.391406 0
0.194531 0.389648 0
0.129688 0.387891 0
0.257812 0.326172 0
0.193359 0.324707 0
0.128906 0.323242 0
0.25625 0.260937 0
0.192187 0.259766 0
0.128125 0.258594 0
0.129688 0.387891 0
0.0648438 0.386133 0
0 0.384375 0
0.128906 0.323242 0
0.0644531 0.321777 0
0 0.320312 0
0.128125 0.258594 0
0.0640625 0.257422 0
0 0.25625 0
0.5125 0.265625 0
0.448437 0.264453 0
0.384375 0.263281 0
0.509375 0.199219 0
0.445703 0.19834 0
0.382031 0.197461 0
0.50625 0.132812 0
0.442969 0.132227 0
0.379688 0.131641 0
0.384375 0.263281 0
0.320312 0.262109 0
0.25625 0.260937 0
0.382031 0.197461 0
0.318359 0.196582 0
0.254687 0.195703 0
[...]
POINT_DATA 34560
VECTORS v double
1.22409 -0.261605 0
1.21192 -0.236411 0
1.20136 -0.213962 0
1.19313 -0.247059 0
1.17887 -0.224974 0
1.16663 -0.204354 0
1.15748 -0.231838 0
1.14181 -0.211924 0
1.12778 -0.193133 0
1.20136 -0.213962 0
1.19218 -0.192714 0
1.18436 -0.173422 0
1.16663 -0.204354 0
1.15543 -0.184934 0
1.14602 -0.166955 0
1.12778 -0.193133 0
1.11506 -0.175377 0
1.10394 -0.158718 0
1.15748 -0.231838 0
1.14181 -0.211924 0
1.12778 -0.193133 0
1.11574 -0.213896 0
1.0987 -0.196354 0
1.08335 -0.179674 0
1.06777 -0.196304 0
1.04996 -0.18086 0
1.03369 -0.166025 0
1.12778 -0.193133 0
1.11506 -0.175377 0
1.10394 -0.158718 0
1.08335 -0.179674 0
1.06932 -0.163756 0
1.05691 -0.148717 0
1.03369 -0.166025 0
1.01879 -0.151763 0
1.00542 -0.138179 0
1.18436 -0.173422 0
1.17711 -0.155313 0
1.17095 -0.13859 0
1.14602 -0.166955 0
1.137 -0.149972 0
1.12947 -0.134167 0
1.10394 -0.158718 0
1.09351 -0.14295 0
1.08451 -0.128119 0
1.17095 -0.13859 0
1.16487 -0.122803 0
1.15963 -0.107954 0
1.12947 -0.134167 0
1.12194 -0.119108 0
1.11558 -0.10489 0
1.08451 -0.128119 0
1.07578 -0.113952 0
1.06825 -0.100476 0
1.10394 -0.158718 0
1.09351 -0.14295 0
1.08451 -0.128119 0
1.05691 -0.148717 0
1.04531 -0.134344 0
1.03515 -0.120741 0
1.00542 -0.138179 0
0.992966 -0.125122 0
0.981913 -0.112684 0
1.08451 -0.128119 0
1.07578 -0.113952 0
1.06825 -0.100476 0
1.03515 -0.120741 0
1.02546 -0.107648 0
1.01699 -0.09512 0
0.981913 -0.112684 0
0.971462 -0.100654 0
0.962243 -0.0890808 0
1.06777 -0.196304 0
1.04996 -0.18086 0
1.03369 -0.166025 0
1.01449 -0.17786 0
0.996146 -0.164393 0
0.979247 -0.151359 0
0.956398 -0.159646 0
0.937752 -0.147933 0
0.920423 -0.136521 0
1.03369 -0.166025 0
1.01879 -0.151763 0
1.00542 -0.138179 0
0.979247 -0.151359 0
0.963697 -0.138729 0
0.949592 -0.126629 0
0.920423 -0.136521 0
0.904413 -0.12541 0
0.889764 -0.114707 0
0.956398 -0.159646 0
0.937752 -0.147933 0
0.920423 -0.136521 0
0.893387 -0.140577 0
0.87457 -0.130564 0
0.857009 -0.120767 0
0.825629 -0.122051 0
0.806866 -0.113571 0
0.789265 -0.105237 0
0.920423 -0.136521 0
0.904413 -0.12541 0
0.889764 -0.114707 0
0.857009 -0.120767 0
0.840714 -0.111182 0
0.825721 -0.101911 0
0.789265 -0.105237 0
0.772879 -0.0970517 0
0.757724 -0.0891076 0
1.00542 -0.138179 0
0.992966 -0.125122 0
0.981913 -0.112684 0
0.949592 -0.126629 0
0.93647 -0.114933 0
0.924707 -0.103732 0
0.889764 -0.114707 0
0.876144 -0.104318 0
0.863835 -0.0943235 0
0.981913 -0.112684 0
0.971462 -0.100654 0
0.962243 -0.0890808 0
0.924707 -0.103732 0
0.913664 -0.0928469 0
0.903846 -0.0823264 0
0.863835 -0.0943235 0
0.852335 -0.0845767 0
0.842048 -0.0751188 0
0.889764 -0.114707 0
0.876144 -0.104318 0
0.863835 -0.0943235 0
0.825721 -0.101911 0
0.81177 -0.0928703 0
0.799091 -0.0841413 0
0.757724 -0.0891076 0
0.743608 -0.0813399 0
0.730715 -0.07382 0
0.863835 -0.0943235 0
0.852335 -0.0845767 0
0.842048 -0.0751188 0
0.799091 -0.0841413 0
0.787279 -0.0755945 0
0.776667 -0.0672715 0
0.730715 -0.07382 0
0.718727 -0.0664404 0
0.707914 -0.0592349 0
1.15963 -0.107954 0
1.15436 -0.0937297 0
1.14973 -0.0800672 0
1.11558 -0.10489 0
1.1092 -0.0911685 0
1.10373 -0.0779678 0
1.06825 -0.100476 0
1.06092 -0.0874303 0
1.05459 -0.0748232 0
1.14973 -0.0800672 0
1.14494 -0.066715 0
1.14064 -0.0535747 0
1.10373 -0.0779678 0
1.09816 -0.0650034 0
1.09329 -0.052237 0
1.05459 -0.0748232 0
1.04834 -0.0624131 0
1.04291 -0.050162 0
1.06825 -0.100476 0
1.06092 -0.0874303 0
1.05459 -0.0748232 0
1.01699 -0.09512 0
1.00892 -0.0829185 0
1.00189 -0.0710733 0
0.962243 -0.0890808 0
0.953561 -0.0777647 0
0.945966 -0.0667312 0
1.05459 -0.0748232 0
1.04834 -0.0624131 0
1.04291 -0.050162 0
1.00189 -0.0710733 0
0.995125 -0.0593667 0
0.989254 -0.0477696 0
0.945966 -0.0667312 0
0.93878 -0.0557925 0
0.932547 -0.0449246 0
1.14064 -0.0535747 0
1.13634 -0.0404297 0
1.13247 -0.0271995 0
1.09329 -0.052237 0
1.08851 -0.0394414 0
1.08435 -0.026564 0
1.04291 -0.050162 0
1.03773 -0.0378641 0
1.03328 -0.0254818 0
1.13247 -0.0271995 0
1.12854 -0.013733 0
1.125 0 0
1.08435 -0.026564 0
1.08023 -0.0134423 0
1.07666 0 0
1.03328 -0.0254818 0
1.029 -0.0128673 0
1.02539 0 0
1.04291 -0.050162 0
1.03773 -0.0378641 0
1.03328 -0.0254818 0
0.989254 -0.0477696 0
0.983773 -0.0360964 0
0.979118 -0.0243242 0
0.932547 -0.0449246 0
0.926831 -0.0339654 0
0.92201 -0.0228919 0
1.03328 -0.0254818 0
1.029 -0.0128673 0
1.02539 0 0
0.979118 -0.0243242 0
0.974777 -0.0123112 0
0.971191 0 0
0.92201 -0.0228919 0
0.91762 -0.0115785 0
0.914062 0 0
0.962243 -0.0890808 0
0.953561 -0.0777647 0
0.945966 -0.0667312 0
0.903846 -0.0823264 0
0.894688 -0.0719926 0
0.886642 -0.061874 0
0.842048 -0.0751188 0
0.832521 -0.0657962 0
0.824124 -0.0566327 0
0.945966 -0.0667312 0
0.93878 -0.0557925 0
0.932547 -0.0449246 0
0.886642 -0.061874 0
0.879137 -0.051804 0
0.872632 -0.041767 0
0.824124 -0.0566327 0
0.816378 -0.047483 0
0.809673 -0.0383332 0
0.842048 -0.0751188 0
0.832521 -0.0657962 0
0.824124 -0.0566327 0
0.776667 -0.0672715 0
0.766889 -0.0590342 0
0.758252 -0.0509061 0
0.707914 -0.0592349 0
0.697986 -0.0520838 0
0.689201 -0.0450043 0
0.824124 -0.0566327 0
0.816378 -0.047483 0
0.809673 -0.0383332 0
0.758252 -0.0509061 0
0.750356 -0.0427544 0
0.743532 -0.0345711 0
0.689201 -0.0450043 0
0.681227 -0.037878 0
0.67435 -0.0306953 0
0.932547 -0.0449246 0
0.926831 -0.0339654 0
0.92201 -0.0228919 0
0.872632 -0.041767 0
0.866756 -0.0316157 0
0.861838 -0.0213327 0
0.809673 -0.0383332 0
0.803691 -0.0290542 0
0.79872 -0.0196293 0
0.92201 -0.0228919 0
0.91762 -0.0115785 0
0.914062 0 0
0.861838 -0.0213327 0
0.857467 -0.0108036 0
0.854004 0 0
0.79872 -0.0196293 0
0.794386 -0.00995538 0
0.791016 0 0
0.809673 -0.0383332 0
0.803691 -0.0290542 0
0.79872 -0.0196293 0
0.743532 -0.0345711 0
0.737511 -0.0262399 0
0.732548 -0.017749 0
0.67435 -0.0306953 0
0.668341 -0.0233542 0
0.663428 -0.0158416 0
0.79872 -0.0196293 0
0.794386 -0.00995538 0
0.791016 0 0
0.732548 -0.017749 0
0.72831 -0.00900476 0
0.725098 0 0
0.663428 -0.0158416 0
0.659307 -0.00807296 0
0.65625 0 0
0.825629 -0.122051 0
0.806866 -0.113571 0
0.789265 -0.105237 0
0.75338 -0.103118 0
0.734757 -0.0960826 0
0.717247 -0.0891541 0
0.676469 -0.0847314 0
0.658156 -0.0790398 0
0.640894 -0.0734236 0
0.789265 -0.105237 0
0.772879 -0.0970517 0
0.757724 -0.0891076 0
0.717247 -0.0891541 0
0.700893 -0.0823324 0
0.685719 -0.0757015 0
0.640894 -0.0734236 0
0.62474 -0.0678848 0
0.609715 -0.0624964 0
0.676469 -0.0847314 0
0.658156 -0.0790398 0
0.640894 -0.0734236 0
0.594629 -0.0661707 0
0.57676 -0.0617609 0
0.55992 -0.0574133 0
0.506532 -0.0484208 0
0.489466 -0.0452276 0
0.47338 -0.0420807 0
0.640894 -0.0734236 0
0.62474 -0.0678848 0
0.609715 -0.0624964 0
0.55992 -0.0574133 0
0.544135 -0.0531226 0
0.529444 -0.0489518 0
0.47338 -0.0420807 0
0.458298 -0.0389724 0
0.444257 -0.0359559 0
0.757724 -0.0891076 0
0.743608 -0.0813399 0
0.730715 -0.07382 0
0.685719 -0.0757015 0
0.67157 -0.0692052 0
0.658603 -0.0629082 0
0.609715 -0.0624964 0
0.595695 -0.057212 0
0.582812 -0.0520881 0
0.730715 -0.07382 0
0.718727 -0.0664404 0
0.707914 -0.0592349 0
0.658603 -0.0629082 0
0.64656 -0.0567166 0
0.635669 -0.0506608 0
0.582812 -0.0520881 0
0.570858 -0.0470466 0
0.560022 -0.0421119 0
0.609715 -0.0624964 0
0.595695 -0.057212 0
0.582812 -0.0520881 0
0.529444 -0.0489518 0
0.515729 -0.0448595 0
0.503111 -0.0408953 0
0.444257 -0.0359559 0
0.43115 -0.0329951 0
0.419082 -0.0301321 0
0.582812 -0.0520881 0
0.570858 -0.0470466 0
0.560022 -0.0421119 0
0.503111 -0.0408953 0
0.49141 -0.0369932 0
0.480792 -0.0331742 0
0.419082 -0.0301321 0
0.407897 -0.0273134 0
0.397737 -0.0245583 0
0.506532 -0.0484208 0
0.489466 -0.0452276 0
0.47338 -0.0420807 0
0.410007 -0.0312952 0
0.394311 -0.0292314 0
0.37955 -0.0272063 0
0.29985 -0.0161816 0
0.286776 -0.0151385 0
0.274482 -0.0141204 0
0.47338 -0.0420807 0
0.458298 -0.0389724 0
0.444257 -0.0359559 0
0.37955 -0.0272063 0
0.365703 -0.0252052 0
0.352829 -0.0232713 0
0.274482 -0.0141204 0
0.262949 -0.0131076 0
0.252231 -0.0121341 0
0.29985 -0.0161816 0
0.286776 -0.0151385 0
0.274482 -0.0141204 0
0.167773 -0.00471302 0
0.159417 -0.00439729 0
0.151593 -0.0041005 0
0 0 0
0 0 0
0 0 0
0.274482 -0.0141204 0
0.262949 -0.0131076 0
0.252231 -0.0121341 0
0.151593 -0.0041005 0
0.14422 -0.00380012 0
0.137391 -0.00352275 0
0 0 0
0 0 0
0 0 0
0.444257 -0.0359559 0
0.43115 -0.0329951 0
0.419082 -0.0301321 0
0.352829 -0.0232713 0
0.340807 -0.0213721 0
0.329744 -0.0195417 0
0.252231 -0.0121341 0
0.24222 -0.0111708 0
0.233005 -0.0102466 0
0.419082 -0.0301321 0
0.407897 -0.0273134 0
0.397737 -0.0245583 0
0.329744 -0.0195417 0
0.319489 -0.017737 0
0.310171 -0.0159774 0
0.233005 -0.0102466 0
0.224457 -0.00933033 0
0.216685 -0.00844133 0
0.252231 -0.0121341 0
0.24222 -0.0111708 0
0.233005 -0.0102466 0
0.137391 -0.00352275 0
0.130982 -0.00323896 0
0.125101 -0.00297591 0
0 0 0
0 0 0
0 0 0
0.233005 -0.0102466 0
0.224457 -0.00933033 0
0.216685 -0.00844133 0
0.125101 -0.00297591 0
0.119615 -0.0027058 0
0.114645 -0.00245226 0
0 0 0
0 0 0
0 0 0
0.707914 -0.0592349 0
0.697986 -0.0520838 0
0.689201 -0.0450043 0
0.635669 -0.0506608 0
0.625694 -0.0446338 0
0.616858 -0.0386502 0
0.560022 -0.0421119 0
0.550114 -0.0371924 0
0.541326 -0.0322985 0
0.689201 -0.0450043 0
0.681227 -0.037878 0
0.67435 -0.0306953 0
0.616858 -0.0386502 0
0.608884 -0.0325999 0
0.602023 -0.0264735 0
0.541326 -0.0322985 0
0.533431 -0.0273309 0
0.526653 -0.0222758 0
0.560022 -0.0421119 0
0.550114 -0.0371924 0
0.541326 -0.0322985 0
0.480792 -0.0331742 0
0.471087 -0.02936 0
0.462474 -0.0255606 0
0.397737 -0.0245583 0
0.388451 -0.0218039 0
0.380199 -0.0190587 0
0.541326 -0.0322985 0
0.533431 -0.0273309 0
0.526653 -0.0222758 0
0.462474 -0.0255606 0
0.45476 -0.0216879 0
0.448151 -0.0177251 0
0.380199 -0.0190587 0
0.372823 -0.0162488 0
0.366512 -0.0133572 0
0.67435 -0.0306953 0
0.668341 -0.0233542 0
0.663428 -0.0158416 0
0.602023 -0.0264735 0
0.596082 -0.0201783 0
0.591269 -0.0137056 0
0.526653 -0.0222758 0
0.520829 -0.0170502 0
0.516156 -0.0116439 0
0.663428 -0.0158416 0
0.659307 -0.00807296 0
0.65625 0 0
0.591269 -0.0137056 0
0.587313 -0.00697644 0
0.584473 0 0
0.516156 -0.0116439 0
0.51239 -0.00598598 0
0.509766 0 0
0.526653 -0.0222758 0
0.520829 -0.0170502 0
0.516156 -0.0116439 0
0.448151 -0.0177251 0
0.442506 -0.0135961 0
0.438018 -0.00929863 0
0.366512 -0.0133572 0
0.361142 -0.0103173 0
0.356906 -0.00711852 0
0.516156 -0.0116439 0
0.51239 -0.00598598 0
0.509766 0 0
0.438018 -0.00929863 0
0.434481 -0.00476405 0
0.432129 0 0
0.356906 -0.00711852 0
0.353639 -0.00371474 0
0.351562 0 0
0.397737 -0.0245583 0
0.388451 -0.0218039 0
0.380199 -0.0190587 0
0.310171 -0.0159774 0
0.301647 -0.0142137 0
0.294067 -0.012456 0
0.216685 -0.00844133 0
0.209563 -0.00754624 0
0.203221 -0.00665565 0
0.380199 -0.0190587 0
0.372823 -0.0162488 0
0.366512 -0.0133572 0
0.294067 -0.012456 0
0.287289 -0.0106475 0
0.281499 -0.00877682 0
0.203221 -0.00665565 0
0.197539 -0.00573381 0
0.192684 -0.00478071 0
0.216685 -0.00844133 0
0.209563 -0.00754624 0
0.203221 -0.00665565 0
0.114645 -0.00245226 0
0.110057 -0.00219025 0
0.105995 -0.00193446 0
0 0 0
0 0 0
0 0 0
0.203221 -0.00665565 0
0.197539 -0.00573381 0
0.192684 -0.00478071 0
0.105995 -0.00193446 0
0.102318 -0.00165867 0
0.0991927 -0.00137978 0
0 0 0
0 0 0
0 0 0
0.366512 -0.0133572 0
0.361142 -0.0103173 0
0.356906 -0.00711852 0
0.281499 -0.00877682 0
0.276578 -0.00678474 0
0.272735 -0.00466797 0
0.192684 -0.00478071 0
0.188565 -0.00375753 0
0.185378 -0.00263833 0
0.356906 -0.00711852 0
0.353639 -0.00371474 0
0.351562 0 0
0.272735 -0.00466797 0
0.26982 -0.00238185 0
0.268066 0 0
0.185378 -0.00263833 0
0.183002 -0.0014151 0
0.181641 0 0
0.192684 -0.00478071 0
0.188565 -0.00375753 0
0.185378 -0.00263833 0
0.0991927 -0.00137978 0
0.0965089 -0.00108134 0
0.0945166 -0.000741227 0
0 0 0
0 0 0
0 0 0
0.185378 -0.00263833 0
0.183002 -0.0014151 0
0.181641 0 0
0.0945166 -0.000741227 0
0.0930094 -0.00032162 0
0.0922852 0 0
0 0 0
0 0 0
0 0 0
1.66645 -0.389545 0
1.63062 -0.410702 0
1.59143 -0.426795 0
1.60451 -0.344314 0
1.57214 -0.363716 0
1.53689 -0.37867 0
1.53854 -0.305071 0
1.51042 -0.322748 0
1.47958 -0.336721 0
1.59143 -0.426795 0
1.5522 -0.436715 0
1.51105 -0.441233 0
1.53689 -0.37867 0
1.50159 -0.388834 0
1.46456 -0.394309 0
1.47958 -0.336721 0
1.44869 -0.346787 0
1.41613 -0.352838 0
1.53854 -0.305071 0
1.51042 -0.322748 0
1.47958 -0.336721 0
1.4758 -0.27205 0
1.45066 -0.286881 0
1.42319 -0.298769 0
1.40928 -0.23985 0
1.38581 -0.252875 0
1.36032 -0.263465 0
1.47958 -0.336721 0
1.44869 -0.346787 0
1.41613 -0.352838 0
1.42319 -0.298769 0
1.39537 -0.307466 0
1.36599 -0.312941 0
1.36032 -0.263465 0
1.33455 -0.271445 0
1.30744 -0.27675 0
1.51105 -0.441233 0
1.473 -0.44037 0
1.43461 -0.434412 0
1.46456 -0.394309 0
1.43011 -0.395178 0
1.39524 -0.392028 0
1.41613 -0.352838 0
1.38546 -0.355075 0
1.35429 -0.353679 0
1.43461 -0.434412 0
1.40068 -0.424801 0
1.36761 -0.411512 0
1.39524 -0.392028 0
1.36403 -0.385323 0
1.3335 -0.375482 0
1.35429 -0.353679 0
1.32586 -0.349084 0
1.29787 -0.341574 0
1.41613 -0.352838 0
1.38546 -0.355075 0
1.35429 -0.353679 0
1.36599 -0.312941 0
1.33788 -0.315263 0
1.30915 -0.314599 0
1.30744 -0.27675 0
1.28133 -0.279428 0
1.2547 -0.279602 0
1.35429 -0.353679 0
1.32586 -0.349084 0
1.29787 -0.341574 0
1.30915 -0.314599 0
1.28248 -0.311295 0
1.25603 -0.305545 0
1.2547 -0.279602 0
1.22975 -0.277495 0
1.20499 -0.273261 0
1.40928 -0.23985 0
1.38581 -0.252875 0
1.36032 -0.263465 0
1.33988 -0.211558 0
1.31809 -0.223021 0
1.29451 -0.232425 0
1.27 -0.184413 0
1.24951 -0.194521 0
1.22738 -0.202917 0
1.36032 -0.263465 0
1.33455 -0.271445 0
1.30744 -0.27675 0
1.29451 -0.232425 0
1.2707 -0.239601 0
1.24569 -0.24452 0
1.22738 -0.202917 0
1.20501 -0.209436 0
1.18154 -0.214049 0
1.27 -0.184413 0
1.24951 -0.194521 0
1.22738 -0.202917 0
1.19851 -0.15907 0
1.17891 -0.167757 0
1.15786 -0.175022 0
1.12433 -0.13462 0
1.10532 -0.142148 0
1.08498 -0.148511 0
1.22738 -0.202917 0
1.20501 -0.209436 0
1.18154 -0.214049 0
1.15786 -0.175022 0
1.13653 -0.18073 0
1.1142 -0.184852 0
1.08498 -0.148511 0
1.06441 -0.153587 0
1.04293 -0.157345 0
1.30744 -0.27675 0
1.28133 -0.279428 0
1.2547 -0.279602 0
1.24569 -0.24452 0
1.22146 -0.247198 0
1.19671 -0.247729 0
1.18154 -0.214049 0
1.15865 -0.216752 0
1.13526 -0.217619 0
1.2547 -0.279602 0
1.22975 -0.277495 0
1.20499 -0.273261 0
1.19671 -0.247729 0
1.1733 -0.246288 0
1.15 -0.242992 0
1.13526 -0.217619 0
1.11294 -0.216779 0
1.09067 -0.214328 0
1.18154 -0.214049 0
1.15865 -0.216752 0
1.13526 -0.217619 0
1.1142 -0.184852 0
1.09231 -0.187386 0
1.06996 -0.188378 0
1.04293 -0.157345 0
1.02182 -0.159771 0
1.00027 -0.160901 0
1.13526 -0.217619 0
1.11294 -0.216779 0
1.09067 -0.214328 0
1.06996 -0.188378 0
1.04847 -0.187933 0
1.027 -0.186112 0
1.00027 -0.160901 0
0.97945 -0.160806 0
0.958648 -0.159535 0
1.36761 -0.411512 0
1.33967 -0.396146 0
1.31363 -0.378149 0
1.3335 -0.375482 0
1.30734 -0.363145 0
1.28274 -0.34888 0
1.29787 -0.341574 0
1.27325 -0.331814 0
1.24985 -0.320106 0
1.31363 -0.378149 0
1.2918 -0.359451 0
1.27222 -0.339682 0
1.28274 -0.34888 0
1.26175 -0.333366 0
1.24274 -0.316712 0
1.24985 -0.320106 0
1.22936 -0.307002 0
1.21047 -0.292726 0
1.29787 -0.341574 0
1.27325 -0.331814 0
1.24985 -0.320106 0
1.25603 -0.305545 0
1.23234 -0.29783 0
1.20959 -0.288356 0
1.20499 -0.273261 0
1.18251 -0.267243 0
1.16087 -0.259657 0
1.24985 -0.320106 0
1.22936 -0.307002 0
1.21047 -0.292726 0
1.20959 -0.288356 0
1.18934 -0.277624 0
1.17049 -0.265814 0
1.16087 -0.259657 0
1.14135 -0.250869 0
1.12304 -0.241036 0
1.27222 -0.339682 0
1.25644 -0.319915 0
1.24332 -0.29974 0
1.24274 -0.316712 0
1.22709 -0.299476 0
1.21367 -0.281957 0
1.21047 -0.292726 0
1.19438 -0.277818 0
1.18018 -0.262471 0
1.24332 -0.29974 0
1.23266 -0.280281 0
1.22409 -0.261605 0
1.21367 -0.281957 0
1.20235 -0.264493 0
1.19313 -0.247059 0
1.18018 -0.262471 0
1.16791 -0.24705 0
1.15748 -0.231838 0
1.21047 -0.292726 0
1.19438 -0.277818 0
1.18018 -0.262471 0
1.17049 -0.265814 0
1.15419 -0.253345 0
1.13961 -0.240372 0
1.12304 -0.241036 0
1.10696 -0.230482 0
1.09237 -0.219376 0
1.18018 -0.262471 0
1.16791 -0.24705 0
1.15748 -0.231838 0
1.13961 -0.240372 0
1.12682 -0.227187 0
1.11574 -0.213896 0
1.09237 -0.219376 0
1.07932 -0.207934 0
1.06777 -0.196304 0
1.20499 -0.273261 0
1.18251 -0.267243 0
1.16087 -0.259657 0
1.15 -0.242992 0
1.12855 -0.238133 0
1.10779 -0.231881 0
1.09067 -0.214328 0
1.06994 -0.210493 0
1.04977 -0.205423 0
1.16087 -0.259657 0
1.14135 -0.250869 0
1.12304 -0.241036 0
1.10779 -0.231881 0
1.08877 -0.224541 0
1.07078 -0.216227 0
1.04977 -0.205423 0
1.03111 -0.199359 0
1.01335 -0.192412 0
1.09067 -0.214328 0
1.06994 -0.210493 0
1.04977 -0.205423 0
1.027 -0.186112 0
1.00683 -0.183104 0
0.98715 -0.179016 0
0.958648 -0.159535 0
0.938937 -0.157233 0
0.919659 -0.153994 0
1.04977 -0.205423 0
1.03111 -0.199359 0
1.01335 -0.192412 0
0.98715 -0.179016 0
0.968769 -0.174051 0
0.951192 -0.168293 0
0.919659 -0.153994 0
0.901507 -0.149975 0
0.884075 -0.145253 0
1.12304 -0.241036 0
1.10696 -0.230482 0
1.09237 -0.219376 0
1.07078 -0.216227 0
1.05469 -0.20724 0
1.03991 -0.197738 0
1.01335 -0.192412 0
0.997273 -0.184831 0
0.982371 -0.176754 0
1.09237 -0.219376 0
1.07932 -0.207934 0
1.06777 -0.196304 0
1.03991 -0.197738 0
1.02653 -0.187923 0
1.01449 -0.17786 0
0.982371 -0.176754 0
0.968767 -0.168332 0
0.956398 -0.159646 0
1.01335 -0.192412 0
0.997273 -0.184831 0
0.982371 -0.176754 0
0.951192 -0.168293 0
0.935087 -0.16195 0
0.920036 -0.155135 0
0.884075 -0.145253 0
0.867939 -0.139994 0
0.852764 -0.134307 0
0.982371 -0.176754 0
0.968767 -0.168332 0
0.956398 -0.159646 0
0.920036 -0.155135 0
0.906154 -0.147985 0
0.893387 -0.140577 0
0.852764 -0.134307 0
0.838673 -0.128305 0
0.825629 -0.122051 0
1.12433 -0.13462 0
1.10532 -0.142148 0
1.08498 -0.148511 0
1.04814 -0.111834 0
1.02954 -0.118225 0
1.00974 -0.123659 0
0.968789 -0.0893891 0
0.950465 -0.0948069 0
0.931 -0.0994503 0
1.08498 -0.148511 0
1.06441 -0.153587 0
1.04293 -0.157345 0
1.00974 -0.123659 0
0.989721 -0.128026 0
0.968865 -0.131299 0
0.931 -0.0994503 0
0.911347 -0.103226 0
0.890904 -0.106109 0
0.968789 -0.0893891 0
0.950465 -0.0948069 0
0.931 -0.0994503 0
0.883778 -0.0679264 0
0.86587 -0.0723737 0
0.846866 -0.0762099 0
0.787085 -0.0473059 0
0.770122 -0.0508282 0
0.752014 -0.0538966 0
0.931 -0.0994503 0
0.911347 -0.103226 0
0.890904 -0.106109 0
0.846866 -0.0762099 0
0.82765 -0.0793563 0
0.807664 -0.0817928 0
0.752014 -0.0538966 0
0.733652 -0.0564492 0
0.714493 -0.058465 0
1.04293 -0.157345 0
1.02182 -0.159771 0
1.00027 -0.160901 0
0.968865 -0.131299 0
0.9483 -0.133466 0
0.927325 -0.13455 0
0.890904 -0.106109 0
0.870699 -0.108084 0
0.850106 -0.10917 0
1.00027 -0.160901 0
0.97945 -0.160806 0
0.958648 -0.159535 0
0.927325 -0.13455 0
0.906962 -0.134613 0
0.886598 -0.133689 0
0.850106 -0.10917 0
0.830045 -0.109413 0
0.809982 -0.108837 0
0.890904 -0.106109 0
0.870699 -0.108084 0
0.850106 -0.10917 0
0.807664 -0.0817928 0
0.787852 -0.0835077 0
0.767652 -0.0845108 0
0.714493 -0.058465 0
0.695429 -0.0599356 0
0.675951 -0.0608634 0
0.850106 -0.10917 0
0.830045 -0.109413 0
0.809982 -0.108837 0
0.767652 -0.0845108 0
0.747908 -0.0848401 0
0.728145 -0.0845109 0
0.675951 -0.0608634 0
0.656842 -0.0612792 0
0.637684 -0.0611897 0
0.787085 -0.0473059 0
0.770122 -0.0508282 0
0.752014 -0.0538966 0
0.668522 -0.0287733 0
0.653698 -0.0313001 0
0.637644 -0.0335229 0
0.51093 -0.0129741 0
0.499978 -0.0144659 0
0.487737 -0.0157985 0
0.752014 -0.0538966 0
0.733652 -0.0564492 0
0.714493 -0.058465 0
0.637644 -0.0335229 0
0.621215 -0.0353943 0
0.603899 -0.0368971 0
0.487737 -0.0157985 0
0.474996 -0.016948 0
0.461307 -0.017896 0
0.51093 -0.0129741 0
0.499978 -0.0144659 0
0.487737 -0.0157985 0
0.294124 -0.00347968 0
0.288759 -0.00396762 0
0.282258 -0.00440426 0
0 0 0
0 0 0
0 0 0
0.487737 -0.0157985 0
0.474996 -0.016948 0
0.461307 -0.017896 0
0.282258 -0.00440426 0
0.275374 -0.00478516 0
0.267599 -0.0050932 0
0 0 0
0 0 0
0 0 0
0.714493 -0.058465 0
0.695429 -0.0599356 0
0.675951 -0.0608634 0
0.603899 -0.0368971 0
0.586548 -0.038026 0
0.568696 -0.0387774 0
0.461307 -0.017896 0
0.447418 -0.0186459 0
0.432948 -0.0191837 0
0.675951 -0.0608634 0
0.656842 -0.0612792 0