# vtk DataFile Version 3.0
#This file was generated by the deal.II library on 2025/1/2 at 3:45:58
ASCII
DATASET UNSTRUCTURED_GRID

POINTS 34560 double
1.1 1.1 0
1.03125 1.09531 0
0.9625 1.09063 0
1.09375 1.03125 0
1.02539 1.02686 0
0.957031 1.02246 0
1.0875 0.9625 0
1.01953 0.958398 0
0.951563 0.954297 0
0.9625 1.09063 0
0.89375 1.08594 0
0.825 1.08125 0
0.957031 1.02246 0
0.888672 1.01807 0
0.820312 1.01367 0
0.951563 0.954297 0
0.883594 0.950195 0
0.815625 0.946094 0
1.0875 0.9625 0
1.01953 0.958398 0
0.951563 0.954297 0
1.08125 0.89375 0
1.01367 0.889941 0
0.946094 0.886133 0
1.075 0.825 0
1.00781 0.821484 0
0.940625 0.817969 0
0.951563 0.954297 0
0.883594 0.950195 0
0.815625 0.946094 0
0.946094 0.886133 0
0.878516 0.882324 0
0.810938 0.878516 0
0.940625 0.817969 0
0.873438 0.814453 0
0.80625 0.810937 0
0.825 1.08125 0
0.75625 1.07656 0
0.6875 1.07187 0
0.820312 1.01367 0
0.751953 1.00928 0
0.683594 1.00488 0
0.815625 0.946094 0
0.747656 0.941992 0
0.679688 0.937891 0
0.6875 1.07187 0
0.61875 1.06719 0
0.55 1.0625 0
0.683594 1.00488 0
0.615234 1.00049 0
0.546875 0.996094 0
0.679688 0.937891 0
0.611719 0.933789 0
0.54375 0.929688 0
0.815625 0.946094 0
0.747656 0.941992 0
0.679688 0.937891 0
0.810938 0.878516 0
0.743359 0.874707 0
0.675781 0.870898 0
0.80625 0.810937 0
0.739063 0.807422 0
0.671875 0.803906 0
0.679688 0.937891 0
0.611719 0.933789 0
0.54375 0.929688 0
0.675781 0.870898 0
0.608203 0.86709 0
0.540625 0.863281 0
0.671875 0.803906 0
0.604688 0.800391 0
0.5375 0.796875 0
1.075 0.825 0
1.00781 0.821484 0
0.940625 0.817969 0
1.06875 0.75625 0
1.00195 0.753027 0
0.935156 0.749805 0
1.0625 0.6875 0
0.996094 0.68457 0
0.929688 0.681641 0
0.940625 0.817969 0
0.873438 0.814453 0
0.80625 0.810937 0
0.935156 0.749805 0
0.868359 0.746582 0
0.801563 0.743359 0
0.929688 0.681641 0
0.863281 0.678711 0
0.796875 0.675781 0
1.0625 0.6875 0
0.996094 0.68457 0
0.929688 0.681641 0
1.05625 0.61875 0
0.990234 0.616113 0
0.924219 0.613477 0
1.05 0.55 0
0.984375 0.547656 0
0.91875 0.545313 0
0.929688 0.681641 0
0.863281 0.678711 0
0.796875 0.675781 0
0.924219 0.613477 0
0.858203 0.61084 0
0.792188 0.608203 0
0.91875 0.545313 0
0.853125 0.542969 0
0.7875 0.540625 0
0.80625 0.810937 0
0.739063 0.807422 0
0.671875 0.803906 0
0.801563 0.743359 0
0.734766 0.740137 0
0.667969 0.736914 0
0.796875 0.675781 0
0.730469 0.672852 0
0.664062 0.669922 0
0.671875 0.803906 0
0.604688 0.800391 0
0.5375 0.796875 0
0.667969 0.736914 0
0.601172 0.733691 0
0.534375 0.730469 0
0.664062 0.669922 0
0.597656 0.666992 0
0.53125 0.664062 0
0.796875 0.675781 0
0.730469 0.672852 0
0.664062 0.669922 0
0.792188 0.608203 0
0.726172 0.605566 0
0.660156 0.60293 0
0.7875 0.540625 0
0.721875 0.538281 0
0.65625 0.535937 0
0.664062 0.669922 0
0.597656 0.666992 0
0.53125 0.664062 0
0.660156 0.60293 0
0.594141 0.600293 0
0.528125 0.597656 0
0.65625 0.535937 0
0.590625 0.533594 0
0.525 0.53125 0
0.55 1.0625 0
0.48125 1.05781 0
0.4125 1.05313 0
0.546875 0.996094 0
0.478516 0.991699 0
0.410156 0.987305 0
0.54375 0.929688 0
0.475781 0.925586 0
0.407813 0.921484 0
0.4125 1.05313 0
0.34375 1.04844 0
0.275 1.04375 0
0.410156 0.987305 0
0.341797 0.98291 0
0.273438 0.978516 0
0.407813 0.921484 0
0.339844 0.917383 0
0.271875 0.913281 0
0.54375 0.929688 0
0.475781 0.925586 0
0.407813 0.921484 0
0.540625 0.863281 0
0.473047 0.859473 0
0.405469 0.855664 0
0.5375 0.796875 0
0.470313 0.793359 0
0.403125 0.789844 0
0.407813 0.921484 0
0.339844 0.917383 0
0.271875 0.913281 0
0.405469 0.855664 0
0.337891 0.851855 0
0.270313 0.848047 0
0.403125 0.789844 0
0.335938 0.786328 0
0.26875 0.782813 0
0.275 1.04375 0
0.20625 1.03906 0
0.1375 1.03437 0
0.273438 0.978516 0
0.205078 0.974121 0
0.136719 0.969727 0
0.271875 0.913281 0
0.203906 0.90918 0
0.135938 0.905078 0
0.1375 1.03437 0
0.06875 1.02969 0
0 1.025 0
0.136719 0.969727 0
0.0683594 0.965332 0
0 0.960937 0
0.135938 0.905078 0
0.0679688 0.900977 0
0 0.896875 0
0.271875 0.913281 0
0.203906 0.90918 0
0.135938 0.905078 0
0.270313 0.848047 0
0.202734 0.844238 0
0.135156 0.84043 0
0.26875 0.782813 0
0.201563 0.779297 0
0.134375 0.775781 0
0.135938 0.905078 0
0.0679688 0.900977 0
0 0.896875 0
0.135156 0.84043 0
0.0675781 0.836621 0
0 0.832812 0
0.134375 0.775781 0
0.0671875 0.772266 0
0 0.76875 0
0.5375 0.796875 0
0.470313 0.793359 0
0.403125 0.789844 0
0.534375 0.730469 0
0.467578 0.727246 0
0.400781 0.724023 0
0.53125 0.664062 0
0.464844 0.661133 0
0.398438 0.658203 0
0.403125 0.789844 0
0.335938 0.786328 0
0.26875 0.782813 0
0.400781 0.724023 0
0.333984 0.720801 0
0.267188 0.717578 0
0.398438 0.658203 0
0.332031 0.655273 0
0.265625 0.652344 0
0.53125 0.664062 0
0.464844 0.661133 0
0.398438 0.658203 0
0.528125 0.597656 0
0.462109 0.59502 0
0.396094 0.592383 0
0.525 0.53125 0
0.459375 0.528906 0
0.39375 0.526563 0
0.398438 0.658203 0
0.332031 0.655273 0
0.265625 0.652344 0
0.396094 0.592383 0
0.330078 0.589746 0
0.264062 0.587109 0
0.39375 0.526563 0
0.328125 0.524219 0
0.2625 0.521875 0
0.26875 0.782813 0
0.201563 0.779297 0
0.134375 0.775781 0
0.267188 0.717578 0
0.200391 0.714355 0
0.133594 0.711133 0
0.265625 0.652344 0
0.199219 0.649414 0
0.132812 0.646484 0
0.134375 0.775781 0
0.0671875 0.772266 0
0 0.76875 0
0.133594 0.711133 0
0.0667969 0.70791 0
0 0.704687 0
0.132812 0.646484 0
0.0664062 0.643555 0
0 0.640625 0
0.265625 0.652344 0
0.199219 0.649414 0
0.132812 0.646484 0
0.264062 0.587109 0
0.198047 0.584473 0
0.132031 0.581836 0
0.2625 0.521875 0
0.196875 0.519531 0
0.13125 0.517187 0
0.132812 0.646484 0
0.0664062 0.643555 0
0 0.640625 0
0.132031 0.581836 0
0.0660156 0.579199 0
0 0.576562 0
0.13125 0.517187 0
0.065625 0.514844 0
0 0.5125 0
1.05 0.55 0
0.984375 0.547656 0
0.91875 0.545313 0
1.04375 0.48125 0
0.978516 0.479199 0
0.913281 0.477148 0
1.0375 0.4125 0
0.972656 0.410742 0
0.907813 0.408984 0
0.91875 0.545313 0
0.853125 0.542969 0
0.7875 0.540625 0
0.913281 0.477148 0
0.848047 0.475098 0
0.782813 0.473047 0
0.907813 0.408984 0
0.842969 0.407227 0
0.778125 0.405469 0
1.0375 0.4125 0
0.972656 0.410742 0
0.907813 0.408984 0
1.03125 0.34375 0
0.966797 0.342285 0
0.902344 0.34082 0
1.025 0.275 0
0.960937 0.273828 0
0.896875 0.272656 0
0.907813 0.408984 0
0.842969 0.407227 0
0.778125 0.405469 0
0.902344 0.34082 0
0.837891 0.339355 0
0.773438 0.337891 0
0.896875 0.272656 0
0.832812 0.271484 0
0.76875 0.270313 0
0.7875 0.540625 0
0.721875 0.538281 0
0.65625 0.535937 0
0.782813 0.473047 0
0.717578 0.470996 0
0.652344 0.468945 0
0.778125 0.405469 0
0.713281 0.403711 0
0.648438 0.401953 0
0.65625 0.535937 0
0.590625 0.533594 0
0.525 0.53125 0
0.652344 0.468945 0
0.587109 0.466895 0
0.521875 0.464844 0
0.648438 0.401953 0
0.583594 0.400195 0
0.51875 0.398438 0
0.778125 0.405469 0
0.713281 0.403711 0
0.648438 0.401953 0
0.773438 0.337891 0
0.708984 0.336426 0
0.644531 0.334961 0
0.76875 0.270313 0
0.704687 0.269141 0
0.640625 0.267969 0
0.648438 0.401953 0
0.583594 0.400195 0
0.51875 0.398438 0
0.644531 0.334961 0
0.580078 0.333496 0
0.515625 0.332031 0
0.640625 0.267969 0
0.576562 0.266797 0
0.5125 0.265625 0
1.025 0.275 0
0.960937 0.273828 0
0.896875 0.272656 0
1.01875 0.20625 0
0.955078 0.205371 0
0.891406 0.204492 0
1.0125 0.1375 0
0.949219 0.136914 0
0.885937 0.136328 0
0.896875 0.272656 0
0.832812 0.271484 0
0.76875 0.270313 0
0.891406 0.204492 0
0.827734 0.203613 0
0.764062 0.202734 0
0.885937 0.136328 0
0.822656 0.135742 0
0.759375 0.135156 0
1.0125 0.1375 0
0.949219 0.136914 0
0.885937 0.136328 0
1.00625 0.06875 0
0.943359 0.068457 0
0.880469 0.0681641 0
1 0 0
0.9375 0 0
0.875 0 0
0.885937 0.136328 0
0.822656 0.135742 0
0.759375 0.135156 0
0.880469 0.0681641 0
0.817578 0.0678711 0
0.754687 0.0675781 0
0.875 0 0
0.8125 0 0
0.75 0 0
0.76875 0.270313 0
0.704687 0.269141 0
0.640625 0.267969 0
0.764062 0.202734 0
0.700391 0.201855 0
0.636719 0.200977 0
0.759375 0.135156 0
0.696094 0.13457 0
0.632812 0.133984 0
0.640625 0.267969 0
0.576562 0.266797 0
0.5125 0.265625 0
0.636719 0.200977 0
0.573047 0.200098 0
0.509375 0.199219 0
0.632812 0.133984 0
0.569531 0.133398 0
0.50625 0.132812 0
0.759375 0.135156 0
0.696094 0.13457 0
0.632812 0.133984 0
0.754687 0.0675781 0
0.691797 0.0672852 0
0.628906 0.0669922 0
0.75 0 0
0.6875 0 0
0.625 0 0
0.632812 0.133984 0
0.569531 0.133398 0
0.50625 0.132812 0
0.628906 0.0669922 0
0.566016 0.0666992 0
0.503125 0.0664062 0
0.625 0 0
0.5625 0 0
0.5 0 0
0.525 0.53125 0
0.459375 0.528906 0
0.39375 0.526563 0
0.521875 0.464844 0
0.456641 0.462793 0
0.391406 0.460742 0
0.51875 0.398438 0
0.453906 0.39668 0
0.389063 0.394922 0
0.39375 0.526563 0
0.328125 0.524219 0
0.2625 0.521875 0
0.391406 0.460742 0
0.326172 0.458691 0
0.260938 0.456641 0
0.389063 0.394922 0
0.324219 0.393164 0
0.259375 0.391406 0
0.51875 0.398438 0
0.453906 0.39668 0
0.389063 0.394922 0
0.515625 0.332031 0
0.451172 0.330566 0
0.386719 0.329102 0
0.5125 0.265625 0
0.448437 0.264453 0
0.384375 0.263281 0
0.389063 0.394922 0
0.324219 0.393164 0
0.259375 0.391406 0
0.386719 0.329102 0
0.322266 0.327637 0
0.257812 0.326172 0
0.384375 0.263281 0
0.320312 0.262109 0
0.25625 0.260937 0
0.2625 0.521875 0
0.196875 0.519531 0
0.13125 0.517187 0
0.260938 0.456641 0
0.195703 0.45459 0
0.130469 0.452539 0
0.259375 0.391406 0
0.194531 0.389648 0
0.129688 0.387891 0
0.13125 0.517187 0
0.065625 0.514844 0
0 0.5125 0
0.130469 0.452539 0
0.0652344 0.450488 0
0 0.448437 0
0.129688 0.387891 0
0.0648438 0.386133 0
0 0.384375 0
0.259375 0.391406 0
0.194531 0.389648 0
0.129688 0.387891 0
0.257812 0.326172 0
0.193359 0.324707 0
0.128906 0.323242 0
0.25625 0.260937 0
0.192187 0.259766 0
0.128125 0.258594 0
0.129688 0.387891 0
0.0648438 0.386133 0
0 0.384375 0
0.128906 0.323242 0
0.0644531 0.321777 0
0 0.320312 0
0.128125 0.258594 0
0.0640625 0.257422 0
0 0.25625 0
0.5125 0.265625 0
0.448437 0.264453 0
0.384375 0.263281 0
0.509375 0.199219 0
0.445703 0.19834 0
0.382031 0.197461 0
0.50625 0.132812 0
0.442969 0.132227 0
0.379688 0.131641 0
0.384375 0.263281 0
0.320312 0.262109 0
0.25625 0.260937 0
0.382031 0.197461 0
0.318359 0.196582 0
0.254687 0.195703 0
[...]
POINT_DATA 34560
VECTORS v double
1.27275 -0.335682 0
1.25392 -0.307526 0
1.23724 -0.281218 0
1.23932 -0.31411 0
1.21885 -0.289516 0
1.20074 -0.265622 0
1.20091 -0.292554 0
1.17944 -0.270603 0
1.15996 -0.248997 0
1.23724 -0.281218 0
1.22249 -0.255538 0
1.20969 -0.231203 0
1.20074 -0.265622 0
1.1843 -0.242297 0
1.17013 -0.219844 0
1.15996 -0.248997 0
1.14235 -0.227811 0
1.12678 -0.207147 0
1.20091 -0.292554 0
1.17944 -0.270603 0
1.15996 -0.248997 0
1.15676 -0.26864 0
1.13431 -0.249402 0
1.11386 -0.2303 0
1.10643 -0.245454 0
1.08354 -0.228657 0
1.06248 -0.21178 0
1.15996 -0.248997 0
1.14235 -0.227811 0
1.12678 -0.207147 0
1.11386 -0.2303 0
1.09522 -0.211368 0
1.07859 -0.19276 0
1.06248 -0.21178 0
1.04323 -0.194901 0
1.02589 -0.178163 0
1.20969 -0.231203 0
1.19794 -0.207689 0
1.18786 -0.185219 0
1.17013 -0.219844 0
1.15686 -0.197978 0
1.14557 -0.176957 0
1.12678 -0.207147 0
1.11235 -0.186964 0
1.09981 -0.167371 0
1.18786 -0.185219 0
1.17828 -0.163573 0
1.17007 -0.142771 0
1.14557 -0.176957 0
1.13472 -0.156519 0
1.12553 -0.136826 0
1.09981 -0.167371 0
1.08794 -0.148263 0
1.07773 -0.129736 0
1.12678 -0.207147 0
1.11235 -0.186964 0
1.09981 -0.167371 0
1.07859 -0.19276 0
1.06321 -0.174414 0
1.04969 -0.156486 0
1.02589 -0.178163 0
1.00985 -0.161548 0
0.995623 -0.145199 0
1.09981 -0.167371 0
1.08794 -0.148263 0
1.07773 -0.129736 0
1.04969 -0.156486 0
1.03702 -0.138884 0
1.026 -0.121717 0
0.995623 -0.145199 0
0.982356 -0.129061 0
0.970736 -0.113239 0
1.10643 -0.245454 0
1.08354 -0.228657 0
1.06248 -0.21178 0
1.05094 -0.221816 0
1.02784 -0.207284 0
1.00646 -0.192527 0
0.99097 -0.198726 0
0.967843 -0.1862 0
0.946284 -0.173362 0
1.06248 -0.21178 0
1.04323 -0.194901 0
1.02589 -0.178163 0
1.00646 -0.192527 0
0.986799 -0.177627 0
0.968948 -0.16274 0
0.946284 -0.173362 0
0.926368 -0.160304 0
0.908155 -0.147165 0
0.99097 -0.198726 0
0.967843 -0.1862 0
0.946284 -0.173362 0
0.926535 -0.174978 0
0.903448 -0.164356 0
0.881842 -0.153389 0
0.857733 -0.151975 0
0.834862 -0.143076 0
0.813359 -0.133815 0
0.946284 -0.173362 0
0.926368 -0.160304 0
0.908155 -0.147165 0
0.881842 -0.153389 0
0.861784 -0.142154 0
0.843355 -0.130776 0
0.813359 -0.133815 0
0.793314 -0.12426 0
0.774808 -0.114526 0
1.02589 -0.178163 0
1.00985 -0.161548 0
0.995623 -0.145199 0
0.968948 -0.16274 0
0.952425 -0.147865 0
0.93766 -0.133136 0
0.908155 -0.147165 0
0.891282 -0.133959 0
0.876105 -0.120807 0
0.995623 -0.145199 0
0.982356 -0.129061 0
0.970736 -0.113239 0
0.93766 -0.133136 0
0.923944 -0.118519 0
0.911855 -0.104116 0
0.876105 -0.120807 0
0.862052 -0.107694 0
0.849604 -0.0947113 0
0.908155 -0.147165 0
0.891282 -0.133959 0
0.876105 -0.120807 0
0.843355 -0.130776 0
0.826253 -0.119266 0
0.8108 -0.10774 0
0.774808 -0.114526 0
0.757603 -0.104627 0
0.741989 -0.0946641 0
0.876105 -0.120807 0
0.862052 -0.107694 0
0.849604 -0.0947113 0
0.8108 -0.10774 0
0.796517 -0.096185 0
0.783821 -0.0846911 0
0.741989 -0.0946641 0
0.727573 -0.0846314 0
0.714723 -0.0746083 0
1.17007 -0.142771 0
1.16217 -0.122716 0
1.1554 -0.103376 0
1.12553 -0.136826 0
1.11665 -0.117708 0
1.10914 -0.0992526 0
1.07773 -0.129736 0
1.06804 -0.111699 0
1.05976 -0.0942228 0
1.1554 -0.103376 0
1.1488 -0.084714 0
1.14311 -0.0666659 0
1.10914 -0.0992526 0
1.10184 -0.0813632 0
1.09565 -0.0640552 0
1.05976 -0.0942228 0
1.05188 -0.0772511 0
1.04518 -0.0608019 0
1.07773 -0.129736 0
1.06804 -0.111699 0
1.05976 -0.0942228 0
1.026 -0.121717 0
1.01568 -0.104922 0
1.0068 -0.0885867 0
0.970736 -0.113239 0
0.959934 -0.0977022 0
0.950587 -0.0825322 0
1.05976 -0.0942228 0
1.05188 -0.0772511 0
1.04518 -0.0608019 0
1.0068 -0.0885867 0
0.998483 -0.072676 0
0.991402 -0.0572163 0
0.950587 -0.0825322 0
0.941947 -0.0677231 0
0.934577 -0.0533061 0
1.14311 -0.0666659 0
1.1377 -0.0492174 0
1.13305 -0.0323001 0
1.09565 -0.0640552 0
1.08981 -0.0472947 0
1.0849 -0.0310518 0
1.04518 -0.0608019 0
1.03898 -0.0448623 0
1.03381 -0.0294221 0
1.13305 -0.0323001 0
1.12869 -0.0159124 0
1.125 0 0
1.0849 -0.0310518 0
1.08038 -0.0153148 0
1.07666 0 0
1.03381 -0.0294221 0
1.02915 -0.014481 0
1.02539 0 0
1.04518 -0.0608019 0
1.03898 -0.0448623 0
1.03381 -0.0294221 0
0.991402 -0.0572163 0
0.984963 -0.0422169 0
0.979606 -0.0276859 0
0.934577 -0.0533061 0
0.927959 -0.039315 0
0.922468 -0.0257605 0
1.03381 -0.0294221 0
1.02915 -0.014481 0
1.02539 0 0
0.979606 -0.0276859 0
0.974912 -0.0136329 0
0.971191 0 0
0.922468 -0.0257605 0
0.917753 -0.0126688 0
0.914062 0 0
0.970736 -0.113239 0
0.959934 -0.0977022 0
0.950587 -0.0825322 0
0.911855 -0.104116 0
0.900691 -0.0899141 0
0.89099 -0.0759947 0
0.849604 -0.0947113 0
0.838169 -0.0818611 0
0.828204 -0.0692213 0
0.950587 -0.0825322 0
0.941947 -0.0677231 0
0.934577 -0.0533061 0
0.89099 -0.0759947 0
0.882116 -0.0623705 0
0.874541 -0.0490822 0
0.828204 -0.0692213 0
0.81917 -0.0568209 0
0.811462 -0.044704 0
0.849604 -0.0947113 0
0.838169 -0.0818611 0
0.828204 -0.0692213 0
0.783821 -0.0846911 0
0.77221 -0.0732629 0
0.762077 -0.0619773 0
0.714723 -0.0746083 0
0.703012 -0.0646032 0
0.692785 -0.054685 0
0.828204 -0.0692213 0
0.81917 -0.0568209 0
0.811462 -0.044704 0
0.762077 -0.0619773 0
0.752961 -0.0508698 0
0.745196 -0.0399935 0
0.692785 -0.054685 0
0.683649 -0.0448955 0
0.675887 -0.0352887 0
0.934577 -0.0533061 0
0.927959 -0.039315 0
0.922468 -0.0257605 0
0.874541 -0.0490822 0
0.867818 -0.0361771 0
0.862261 -0.0236772 0
0.811462 -0.044704 0
0.804687 -0.0329343 0
0.799112 -0.0215392 0
0.922468 -0.0257605 0
0.917753 -0.0126688 0
0.914062 0 0
0.862261 -0.0236772 0
0.857592 -0.0116249 0
0.854004 0 0
0.799112 -0.0215392 0
0.794507 -0.0105741 0
0.791016 0 0
0.811462 -0.044704 0
0.804687 -0.0329343 0
0.799112 -0.0215392 0
0.745196 -0.0399935 0
0.738435 -0.0294215 0
0.732903 -0.0191938 0
0.675887 -0.0352887 0
0.669192 -0.0259476 0
0.663749 -0.0169166 0
0.799112 -0.0215392 0
0.794507 -0.0105741 0
0.791016 0 0
0.732903 -0.0191938 0
0.728422 -0.00938131 0
0.725098 0 0
0.663749 -0.0169166 0
0.659413 -0.00828013 0
0.65625 0 0
0.857733 -0.151975 0
0.834862 -0.143076 0
0.813359 -0.133815 0
0.785024 -0.128735 0
0.762407 -0.121413 0
0.741078 -0.113749 0
0.708194 -0.106096 0
0.685952 -0.100234 0
0.664903 -0.0940631 0
0.813359 -0.133815 0
0.793314 -0.12426 0
0.774808 -0.114526 0
0.741078 -0.113749 0
0.721103 -0.105798 0
0.702599 -0.0976619 0
0.664903 -0.0940631 0
0.645118 -0.0876247 0
0.626729 -0.0810122 0
0.708194 -0.106096 0
0.685952 -0.100234 0
0.664903 -0.0940631 0
0.627017 -0.0833445 0
0.605242 -0.0788186 0
0.584599 -0.0740398 0
0.539657 -0.0613835 0
0.518687 -0.0581069 0
0.498769 -0.0546379 0
0.664903 -0.0940631 0
0.645118 -0.0876247 0
0.626729 -0.0810122 0
0.584599 -0.0740398 0
0.565122 -0.0690346 0
0.546978 -0.0638842 0
0.498769 -0.0546379 0
0.479925 -0.0509888 0
0.462339 -0.0472317 0
0.774808 -0.114526 0
0.757603 -0.104627 0
0.741989 -0.0946641 0
0.702599 -0.0976619 0
0.685359 -0.089351 0
0.669663 -0.0809546 0
0.626729 -0.0810122 0
0.609562 -0.0742286 0
0.593885 -0.0673536 0
0.741989 -0.0946641 0
0.727573 -0.0846314 0
0.714723 -0.0746083 0
0.669663 -0.0809546 0
0.65518 -0.072464 0
0.642243 -0.0639491 0
0.593885 -0.0673536 0
0.579422 -0.0603763 0
0.566481 -0.0533563 0
0.626729 -0.0810122 0
0.609562 -0.0742286 0
0.593885 -0.0673536 0
0.546978 -0.0638842 0
0.530005 -0.0585854 0
0.51447 -0.0532064 0
0.462339 -0.0472317 0
0.445859 -0.0433558 0
0.43075 -0.0394205 0
0.593885 -0.0673536 0
0.579422 -0.0603763 0
0.566481 -0.0533563 0
0.51447 -0.0532064 0
0.500135 -0.0477337 0
0.48729 -0.0422165 0
0.43075 -0.0394205 0
0.416801 -0.035409 0
0.404289 -0.0313632 0
0.539657 -0.0613835 0
0.518687 -0.0581069 0
0.498769 -0.0546379 0
0.44301 -0.0401095 0
0.423418 -0.037945 0
0.404823 -0.0356599 0
0.328943 -0.0208444 0
0.312266 -0.0197252 0
0.296457 -0.0185505 0
0.498769 -0.0546379 0
0.479925 -0.0509888 0
0.462339 -0.0472317 0
0.404823 -0.0356599 0
0.387194 -0.0332523 0
0.370751 -0.0307824 0
0.296457 -0.0185505 0
0.281473 -0.0173013 0
0.267524 -0.0160273 0
0.328943 -0.0208444 0
0.312266 -0.0197252 0
0.296457 -0.0185505 0
0.185063 -0.00616201 0
0.174247 -0.00580182 0
0.164104 -0.00544085 0
0 0 0
0 0 0
0 0 0
0.296457 -0.0185505 0
0.281473 -0.0173013 0
0.267524 -0.0160273 0
0.164104 -0.00544085 0
0.154462 -0.00504699 0
0.145586 -0.00466176 0
0 0 0
0 0 0
0 0 0
0.462339 -0.0472317 0
0.445859 -0.0433558 0
0.43075 -0.0394205 0
0.370751 -0.0307824 0
0.355326 -0.0282333 0
0.34119 -0.0256535 0
0.267524 -0.0160273 0
0.25445 -0.0147052 0
0.242492 -0.0133749 0
0.43075 -0.0394205 0
0.416801 -0.035409 0
0.404289 -0.0313632 0
0.34119 -0.0256535 0
0.328134 -0.0230244 0
0.316431 -0.0203808 0
0.242492 -0.0133749 0
0.231461 -0.0120161 0
0.221593 -0.010658 0
0.267524 -0.0160273 0
0.25445 -0.0147052 0
0.242492 -0.0133749 0
0.145586 -0.00466176 0
0.137246 -0.00425242 0
0.129708 -0.00385409 0
0 0 0
0 0 0
0 0 0
0.242492 -0.0133749 0
0.231461 -0.0120161 0
0.221593 -0.010658 0
0.129708 -0.00385409 0
0.122735 -0.00343993 0
0.116574 -0.00303793 0
0 0 0
0 0 0
0 0 0
0.714723 -0.0746083 0
0.703012 -0.0646032 0
0.692785 -0.054685 0
0.642243 -0.0639491 0
0.63049 -0.0554148 0
0.620231 -0.0469213 0
0.566481 -0.0533563 0
0.554754 -0.046294 0
0.544525 -0.0392397 0
0.692785 -0.054685 0
0.683649 -0.0448955 0
0.675887 -0.0352887 0
0.620231 -0.0469213 0
0.611127 -0.0385066 0
0.603425 -0.0302266 0
0.544525 -0.0392397 0
0.535506 -0.0322247 0
0.527916 -0.0252999 0
0.566481 -0.0533563 0
0.554754 -0.046294 0
0.544525 -0.0392397 0
0.48729 -0.0422165 0
0.475674 -0.0366493 0
0.465552 -0.0310709 0
0.404289 -0.0313632 0
0.392988 -0.027272 0
0.38315 -0.0231631 0
0.544525 -0.0392397 0
0.535506 -0.0322247 0
0.527916 -0.0252999 0
0.465552 -0.0310709 0
0.456681 -0.025501 0
0.449264 -0.019981 0
0.38315 -0.0231631 0
0.374571 -0.0190425 0
0.367445 -0.0149417 0
0.675887 -0.0352887 0
0.669192 -0.0259476 0
0.663749 -0.0169166 0
0.603425 -0.0302266 0
0.596845 -0.0221667 0
0.591545 -0.0143836 0
0.527916 -0.0252999 0
0.521498 -0.0185495 0
0.516386 -0.0120324 0
0.663749 -0.0169166 0
0.659413 -0.00828013 0
0.65625 0 0
0.591545 -0.0143836 0
0.587406 -0.00697448 0
0.584473 0 0
0.516386 -0.0120324 0
0.51247 -0.00586022 0
0.509766 0 0
0.527916 -0.0252999 0
0.521498 -0.0185495 0
0.516386 -0.0120324 0
0.449264 -0.019981 0
0.443059 -0.0145834 0
0.438186 -0.00937799 0
0.367445 -0.0149417 0
0.361553 -0.0109148 0
0.356997 -0.00701605 0
0.516386 -0.0120324 0
0.51247 -0.00586022 0
0.509766 0 0
0.438186 -0.00937799 0
0.434541 -0.00447984 0
0.432129 0 0
0.356997 -0.00701605 0
0.353674 -0.0033802 0
0.351562 0 0
0.404289 -0.0313632 0
0.392988 -0.027272 0
0.38315 -0.0231631 0
0.316431 -0.0203808 0
0.305869 -0.017709 0
0.296693 -0.0150264 0
0.221593 -0.010658 0
0.212701 -0.00928505 0
0.204998 -0.00790944 0
0.38315 -0.0231631 0
0.374571 -0.0190425 0
0.367445 -0.0149417 0
0.296693 -0.0150264 0
0.288719 -0.0123295 0
0.282143 -0.00963813 0
0.204998 -0.00790944 0
0.19832 -0.00652171 0
0.192848 -0.00513754 0
0.221593 -0.010658 0
0.212701 -0.00928505 0
0.204998 -0.00790944 0
0.116574 -0.00303793 0
0.111003 -0.00262896 0
0.106245 -0.00222564 0
0 0 0
0 0 0
0 0 0
0.204998 -0.00790944 0
0.19832 -0.00652171 0
0.192848 -0.00513754 0
0.106245 -0.00222564 0
0.102099 -0.00181239 0
0.0987502 -0.00140776 0
0 0 0
0 0 0
0 0 0
0.367445 -0.0149417 0
0.361553 -0.0109148 0
0.356997 -0.00701605 0
0.282143 -0.00963813 0
0.276769 -0.00697922 0
0.272704 -0.00439358 0
0.192848 -0.00513754 0
0.188432 -0.00376183 0
0.185178 -0.0023937 0
0.356997 -0.00701605 0
0.353674 -0.0033802 0
0.351562 0 0
0.272704 -0.00439358 0
0.269809 -0.00198806 0
0.268066 0 0
0.185178 -0.0023937 0
0.182928 -0.00112485 0
0.181641 0 0
0.192848 -0.00513754 0
0.188432 -0.00376183 0
0.185178 -0.0023937 0
0.0987502 -0.00140776 0
0.0960508 -0.00101169 0
0.0941716 -0.000605005 0
0 0 0
0 0 0
0 0 0
0.185178 -0.0023937 0
0.182928 -0.00112485 0
0.181641 0 0
0.0941716 -0.000605005 0
0.0928957 -0.000189374 0
0.0922852 0 0
0 0 0
0 0 0
0 0 0
1.81258 -0.364383 0
1.77276 -0.399702 0
1.72887 -0.428883 0
1.73837 -0.313542 0
1.70277 -0.346426 0
1.66369 -0.373885 0
1.65904 -0.270262 0
1.62882 -0.30061 0
1.59516 -0.326452 0
1.72887 -0.428883 0
1.68418 -0.450743 0
1.63703 -0.466085 0
1.66369 -0.373885 0
1.6237 -0.395523 0
1.58151 -0.411427 0
1.59516 -0.326452 0
1.56053 -0.34748 0
1.52369 -0.363587 0
1.65904 -0.270262 0
1.62882 -0.30061 0
1.59516 -0.326452 0
1.58525 -0.235636 0
1.55879 -0.262161 0
1.5293 -0.285072 0
1.50847 -0.201705 0
1.48434 -0.225664 0
1.45748 -0.246562 0
1.59516 -0.326452 0
1.56053 -0.34748 0
1.52369 -0.363587 0
1.5293 -0.285072 0
1.49859 -0.303994 0
1.46577 -0.318896 0
1.45748 -0.246562 0
1.42951 -0.264128 0
1.3996 -0.278293 0
1.63703 -0.466085 0
1.59267 -0.474805 0
1.54764 -0.477278 0
1.58151 -0.411427 0
1.54149 -0.421654 0
1.50074 -0.426809 0
1.52369 -0.363587 0
1.48831 -0.374916 0
1.45206 -0.381651 0
1.54764 -0.477278 0
1.50706 -0.475018 0
1.46712 -0.46805 0
1.50074 -0.426809 0
1.46347 -0.427392 0
1.42666 -0.423856 0
1.45206 -0.381651 0
1.41829 -0.38425 0
1.3847 -0.383009 0
1.52369 -0.363587 0
1.48831 -0.374916 0
1.45206 -0.381651 0
1.46577 -0.318896 0
1.43371 -0.329778 0
1.40061 -0.336836 0
1.3996 -0.278293 0
1.37017 -0.289058 0
1.33976 -0.29656 0
1.45206 -0.381651 0
1.41829 -0.38425 0
1.3847 -0.383009 0
1.40061 -0.336836 0
1.36925 -0.340405 0
1.3378 -0.340667 0
1.33976 -0.29656 0
1.31064 -0.301006 0
1.28137 -0.302544 0
1.50847 -0.201705 0
1.48434 -0.225664 0
1.45748 -0.246562 0
1.4294 -0.173053 0
1.40765 -0.194634 0
1.38335 -0.213598 0
1.35113 -0.145992 0
1.33132 -0.165406 0
1.30908 -0.182621 0
1.45748 -0.246562 0
1.42951 -0.264128 0
1.3996 -0.278293 0
1.38335 -0.213598 0
1.35798 -0.229695 0
1.33077 -0.242887 0
1.30908 -0.182621 0
1.28577 -0.197395 0
1.26068 -0.209691 0
1.35113 -0.145992 0
1.33132 -0.165406 0
1.30908 -0.182621 0
1.27203 -0.121996 0
1.25379 -0.139103 0
1.23326 -0.154359 0
1.19096 -0.0992934 0
1.17397 -0.11435 0
1.15476 -0.127871 0
1.30908 -0.182621 0
1.28577 -0.197395 0
1.26068 -0.209691 0
1.23326 -0.154359 0
1.21162 -0.167557 0
1.18824 -0.178671 0
1.15476 -0.127871 0
1.13446 -0.139675 0
1.11247 -0.149729 0
1.3996 -0.278293 0
1.37017 -0.289058 0
1.33976 -0.29656 0
1.33077 -0.242887 0
1.3038 -0.25315 0
1.27583 -0.260584 0
1.26068 -0.209691 0
1.2356 -0.219462 0
1.20949 -0.226787 0
1.33976 -0.29656 0
1.31064 -0.301006 0
1.28137 -0.302544 0
1.27583 -0.260584 0
1.24879 -0.265348 0
1.22148 -0.267541 0
1.20949 -0.226787 0
1.18402 -0.231771 0
1.1582 -0.234494 0
1.26068 -0.209691 0
1.2356 -0.219462 0
1.20949 -0.226787 0
1.18824 -0.178671 0
1.16469 -0.187656 0
1.14009 -0.194562 0
1.11247 -0.149729 0
1.0902 -0.157985 0
1.06687 -0.164479 0
1.20949 -0.226787 0
1.18402 -0.231771 0
1.1582 -0.234494 0
1.14009 -0.194562 0
1.11589 -0.199474 0
1.09126 -0.202438 0
1.06687 -0.164479 0
1.04377 -0.169265 0
1.02019 -0.172377 0
1.46712 -0.46805 0
1.43247 -0.45802 0
1.3996 -0.444291 0
1.42666 -0.423856 0
1.39434 -0.416889 0
1.36347 -0.407034 0
1.3847 -0.383009 0
1.35457 -0.378632 0
1.32553 -0.371385 0
1.3996 -0.444291 0
1.37119 -0.429017 0
1.34499 -0.411738 0
1.36347 -0.407034 0
1.33638 -0.395079 0
1.31124 -0.381115 0
1.32553 -0.371385 0
1.29945 -0.361901 0
1.27491 -0.350378 0
1.3847 -0.383009 0
1.35457 -0.378632 0
1.32553 -0.371385 0
1.3378 -0.340667 0
1.30905 -0.338133 0
1.28107 -0.333002 0
1.28137 -0.302544 0
1.25428 -0.301545 0
1.22783 -0.29822 0
1.32553 -0.371385 0
1.29945 -0.361901 0
1.27491 -0.350378 0
1.28107 -0.333002 0
1.25557 -0.325845 0
1.23138 -0.316783 0
1.22783 -0.29822 0
1.20346 -0.292976 0
1.18023 -0.285931 0
1.34499 -0.411738 0
1.3229 -0.393657 0
1.30354 -0.374243 0
1.31124 -0.381115 0
1.28979 -0.365777 0
1.27063 -0.349273 0
1.27491 -0.350378 0
1.25342 -0.337414 0
1.23387 -0.323158 0
1.30354 -0.374243 0
1.28703 -0.354923 0
1.27275 -0.335682 0
1.27063 -0.349273 0
1.25386 -0.332068 0
1.23932 -0.31411 0
1.23387 -0.323158 0
1.2164 -0.308102 0
1.20091 -0.292554 0
1.27491 -0.350378 0
1.25342 -0.337414 0
1.23387 -0.323158 0
1.23138 -0.316783 0
1.20996 -0.306327 0
1.1903 -0.294614 0
1.18023 -0.285931 0
1.15939 -0.277481 0
1.14009 -0.267766 0
1.23387 -0.323158 0
1.2164 -0.308102 0
1.20091 -0.292554 0
1.1903 -0.294614 0
1.17261 -0.282038 0
1.15676 -0.26864 0
1.14009 -0.267766 0
1.12246 -0.257051 0
1.10643 -0.245454 0
1.28137 -0.302544 0
1.25428 -0.301545 0
1.22783 -0.29822 0
1.22148 -0.267541 0
1.1959 -0.267474 0
1.17077 -0.26531 0
1.1582 -0.234494 0
1.13371 -0.235197 0
1.10951 -0.23402 0
1.22783 -0.29822 0
1.20346 -0.292976 0
1.18023 -0.285931 0
1.17077 -0.26531 0
1.14731 -0.261388 0
1.12476 -0.255785 0
1.10951 -0.23402 0
1.0867 -0.23123 0
1.06464 -0.22691 0
1.1582 -0.234494 0
1.13371 -0.235197 0
1.10951 -0.23402 0
1.09126 -0.202438 0
1.06767 -0.203654 0
1.04426 -0.203213 0
1.02019 -0.172377 0
0.997404 -0.173962 0
0.974705 -0.174103 0
1.10951 -0.23402 0
1.0867 -0.23123 0
1.06464 -0.22691 0
1.04426 -0.203213 0
1.02201 -0.201341 0
1.00039 -0.198094 0
0.974705 -0.174103 0
0.952942 -0.172971 0
0.931693 -0.170616 0
1.18023 -0.285931 0
1.15939 -0.277481 0
1.14009 -0.267766 0
1.12476 -0.255785 0
1.10421 -0.248856 0
1.08497 -0.240748 0
1.06464 -0.22691 0
1.04432 -0.22136 0
1.02517 -0.214706 0
1.14009 -0.267766 0
1.12246 -0.257051 0
1.10643 -0.245454 0
1.08497 -0.240748 0
1.06723 -0.231723 0
1.05094 -0.221816 0
1.02517 -0.214706 0
1.0074 -0.207145 0
0.99097 -0.198726 0
1.06464 -0.22691 0
1.04432 -0.22136 0
1.02517 -0.214706 0
1.00039 -0.198094 0
0.980247 -0.193718 0
0.961125 -0.188309 0
0.931693 -0.170616 0
0.9117 -0.167234 0
0.8926 -0.162919 0
1.02517 -0.214706 0
1.0074 -0.207145 0
0.99097 -0.198726 0
0.961125 -0.188309 0
0.943233 -0.182043 0
0.926535 -0.174978 0
0.8926 -0.162919 0
0.874611 -0.157818 0
0.857733 -0.151975 0
1.19096 -0.0992934 0
1.17397 -0.11435 0
1.15476 -0.127871 0
1.10842 -0.0793824 0
1.09253 -0.0923698 0
1.07452 -0.104088 0
1.02314 -0.0602873 0
1.00829 -0.0713292 0
0.991296 -0.081346 0
1.15476 -0.127871 0
1.13446 -0.139675 0
1.11247 -0.149729 0
1.07452 -0.104088 0
1.05538 -0.114374 0
1.0346 -0.123199 0
0.991296 -0.081346 0
0.973175 -0.0901978 0
0.953399 -0.0978541 0
1.02314 -0.0602873 0
1.00829 -0.0713292 0
0.991296 -0.081346 0
0.932246 -0.0433854 0
0.918652 -0.0524102 0
0.902899 -0.0606349 0
0.829953 -0.0279777 0
0.818141 -0.0349682 0
0.804045 -0.0413824 0
0.991296 -0.081346 0
0.973175 -0.0901978 0
0.953399 -0.0978541 0
0.902899 -0.0606349 0
0.885933 -0.06794 0
0.867269 -0.0742996 0
0.804045 -0.0413824 0
0.788638 -0.0471245 0
0.771439 -0.0521622 0
1.11247 -0.149729 0
1.0902 -0.157985 0
1.06687 -0.164479 0
1.0346 -0.123199 0
1.0134 -0.130518 0
0.991128 -0.136356 0
0.953399 -0.0978541 0
0.933116 -0.104273 0
0.911717 -0.109469 0
1.06687 -0.164479 0
1.04377 -0.169265 0
1.02019 -0.172377 0
0.991128 -0.136356 0
0.968923 -0.140753 0
0.946178 -0.143732 0
0.911717 -0.109469 0
0.890264 -0.113473 0
0.868218 -0.116296 0
0.953399 -0.0978541 0
0.933116 -0.104273 0
0.911717 -0.109469 0
0.867269 -0.0742996 0
0.847978 -0.0796763 0
0.827511 -0.0840755 0
0.771439 -0.0521622 0
0.753477 -0.0564656 0
0.73425 -0.0600289 0
0.911717 -0.109469 0
0.890264 -0.113473 0
0.868218 -0.116296 0
0.827511 -0.0840755 0
0.80686 -0.0875198 0
0.785545 -0.090012 0
0.73425 -0.0600289 0
0.714702 -0.0628703 0
0.694404 -0.0649819 0
0.829953 -0.0279777 0
0.818141 -0.0349682 0
0.804045 -0.0413824 0
0.705713 -0.0156946 0
0.696651 -0.0205293 0
0.685213 -0.0249969 0
0.541675 -0.00604729 0
0.53619 -0.00873025 0
0.528407 -0.0112329 0
0.804045 -0.0413824 0
0.788638 -0.0471245 0
0.771439 -0.0521622 0
0.685213 -0.0249969 0
0.672314 -0.0290278 0
0.657504 -0.0325874 0
0.528407 -0.0112329 0
0.519139 -0.0135196 0
0.507987 -0.0155574 0
0.541675 -0.00604729 0
0.53619 -0.00873025 0
0.528407 -0.0112329 0
0.314872 -0.00158596 0
0.312881 -0.00241789 0
0.309143 -0.00319186 0
0 0 0
0 0 0
0 0 0
0.528407 -0.0112329 0
0.519139 -0.0135196 0
0.507987 -0.0155574 0
0.309143 -0.00319186 0
0.304397 -0.00390729 0
0.298157 -0.00453422 0
0 0 0
0 0 0
0 0 0
0.771439 -0.0521622 0
0.753477 -0.0564656 0
0.73425 -0.0600289 0
0.657504 -0.0325874 0
0.641753 -0.0356556 0
0.624613 -0.0382161 0
0.507987 -0.0155574 0
0.495788 -0.0173433 0
0.482179 -0.0188502 0
0.73425 -0.0600289 0
0.714702 -0.0628703 0
0.694404 -0.0649819 0
0.624613 -0.0382161 0