# vtk DataFile Version 3.0
#This file was generated by the deal.II library on 2025/1/8 at 2:59:51
ASCII
DATASET UNSTRUCTURED_GRID

POINTS 34560 double
1.1 1.1 0
1.03125 1.09531 0
0.9625 1.09063 0
1.09375 1.03125 0
1.02539 1.02686 0
0.957031 1.02246 0
1.0875 0.9625 0
1.01953 0.958398 0
0.951563 0.954297 0
0.9625 1.09063 0
0.89375 1.08594 0
0.825 1.08125 0
0.957031 1.02246 0
0.888672 1.01807 0
0.820312 1.01367 0
0.951563 0.954297 0
0.883594 0.950195 0
0.815625 0.946094 0
1.0875 0.9625 0
1.01953 0.958398 0
0.951563 0.954297 0
1.08125 0.89375 0
1.01367 0.889941 0
0.946094 0.886133 0
1.075 0.825 0
1.00781 0.821484 0
0.940625 0.817969 0
0.951563 0.954297 0
0.883594 0.950195 0
0.815625 0.946094 0
0.946094 0.886133 0
0.878516 0.882324 0
0.810938 0.878516 0
0.940625 0.817969 0
0.873438 0.814453 0
0.80625 0.810937 0
0.825 1.08125 0
0.75625 1.07656 0
0.6875 1.07187 0
0.820312 1.01367 0
0.751953 1.00928 0
0.683594 1.00488 0
0.815625 0.946094 0
0.747656 0.941992 0
0.679688 0.937891 0
0.6875 1.07187 0
0.61875 1.06719 0
0.55 1.0625 0
0.683594 1.00488 0
0.615234 1.00049 0
0.546875 0.996094 0
0.679688 0.937891 0
0.611719 0.933789 0
0.54375 0.929688 0
0.815625 0.946094 0
0.747656 0.941992 0
0.679688 0.937891 0
0.810938 0.878516 0
0.743359 0.874707 0
0.675781 0.870898 0
0.80625 0.810937 0
0.739063 0.807422 0
0.671875 0.803906 0
0.679688 0.937891 0
0.611719 0.933789 0
0.54375 0.929688 0
0.675781 0.870898 0
0.608203 0.86709 0
0.540625 0.863281 0
0.671875 0.803906 0
0.604688 0.800391 0
0.5375 0.796875 0
1.075 0.825 0
1.00781 0.821484 0
0.940625 0.817969 0
1.06875 0.75625 0
1.00195 0.753027 0
0.935156 0.749805 0
1.0625 0.6875 0
0.996094 0.68457 0
0.929688 0.681641 0
0.940625 0.817969 0
0.873438 0.814453 0
0.80625 0.810937 0
0.935156 0.749805 0
0.868359 0.746582 0
0.801563 0.743359 0
0.929688 0.681641 0
0.863281 0.678711 0
0.796875 0.675781 0
1.0625 0.6875 0
0.996094 0.68457 0
0.929688 0.681641 0
1.05625 0.61875 0
0.990234 0.616113 0
0.924219 0.613477 0
1.05 0.55 0
0.984375 0.547656 0
0.91875 0.545313 0
0.929688 0.681641 0
0.863281 0.678711 0
0.796875 0.675781 0
0.924219 0.613477 0
0.858203 0.61084 0
0.792188 0.608203 0
0.91875 0.545313 0
0.853125 0.542969 0
0.7875 0.540625 0
0.80625 0.810937 0
0.739063 0.807422 0
0.671875 0.803906 0
0.801563 0.743359 0
0.734766 0.740137 0
0.667969 0.736914 0
0.796875 0.675781 0
0.730469 0.672852 0
0.664062 0.669922 0
0.671875 0.803906 0
0.604688 0.800391 0
0.5375 0.796875 0
0.667969 0.736914 0
0.601172 0.733691 0
0.534375 0.730469 0
0.664062 0.669922 0
0.597656 0.666992 0
0.53125 0.664062 0
0.796875 0.675781 0
0.730469 0.672852 0
0.664062 0.669922 0
0.792188 0.608203 0
0.726172 0.605566 0
0.660156 0.60293 0
0.7875 0.540625 0
0.721875 0.538281 0
0.65625 0.535937 0
0.664062 0.669922 0
0.597656 0.666992 0
0.53125 0.664062 0
0.660156 0.60293 0
0.594141 0.600293 0
0.528125 0.597656 0
0.65625 0.535937 0
0.590625 0.533594 0
0.525 0.53125 0
0.55 1.0625 0
0.48125 1.05781 0
0.4125 1.05313 0
0.546875 0.996094 0
0.478516 0.991699 0
0.410156 0.987305 0
0.54375 0.929688 0
0.475781 0.925586 0
0.407813 0.921484 0
0.4125 1.05313 0
0.34375 1.04844 0
0.275 1.04375 0
0.410156 0.987305 0
0.341797 0.98291 0
0.273438 0.978516 0
0.407813 0.921484 0
0.339844 0.917383 0
0.271875 0.913281 0
0.54375 0.929688 0
0.475781 0.925586 0
0.407813 0.921484 0
0.540625 0.863281 0
0.473047 0.859473 0
0.405469 0.855664 0
0.5375 0.796875 0
0.470313 0.793359 0
0.403125 0.789844 0
0.407813 0.921484 0
0.339844 0.917383 0
0.271875 0.913281 0
0.405469 0.855664 0
0.337891 0.851855 0
0.270313 0.848047 0
0.403125 0.789844 0
0.335938 0.786328 0
0.26875 0.782813 0
0.275 1.04375 0
0.20625 1.03906 0
0.1375 1.03437 0
0.273438 0.978516 0
0.205078 0.974121 0
0.136719 0.969727 0
0.271875 0.913281 0
0.203906 0.90918 0
0.135938 0.905078 0
0.1375 1.03437 0
0.06875 1.02969 0
0 1.025 0
0.136719 0.969727 0
0.0683594 0.965332 0
0 0.960937 0
0.135938 0.905078 0
0.0679688 0.900977 0
0 0.896875 0
0.271875 0.913281 0
0.203906 0.90918 0
0.135938 0.905078 0
0.270313 0.848047 0
0.202734 0.844238 0
0.135156 0.84043 0
0.26875 0.782813 0
0.201563 0.779297 0
0.134375 0.775781 0
0.135938 0.905078 0
0.0679688 0.900977 0
0 0.896875 0
0.135156 0.84043 0
0.0675781 0.836621 0
0 0.832812 0
0.134375 0.775781 0
0.0671875 0.772266 0
0 0.76875 0
0.5375 0.796875 0
0.470313 0.793359 0
0.403125 0.789844 0
0.534375 0.730469 0
0.467578 0.727246 0
0.400781 0.724023 0
0.53125 0.664062 0
0.464844 0.661133 0
0.398438 0.658203 0
0.403125 0.789844 0
0.335938 0.786328 0
0.26875 0.782813 0
0.400781 0.724023 0
0.333984 0.720801 0
0.267188 0.717578 0
0.398438 0.658203 0
0.332031 0.655273 0
0.265625 0.652344 0
0.53125 0.664062 0
0.464844 0.661133 0
0.398438 0.658203 0
0.528125 0.597656 0
0.462109 0.59502 0
0.396094 0.592383 0
0.525 0.53125 0
0.459375 0.528906 0
0.39375 0.526563 0
0.398438 0.658203 0
0.332031 0.655273 0
0.265625 0.652344 0
0.396094 0.592383 0
0.330078 0.589746 0
0.264062 0.587109 0
0.39375 0.526563 0
0.328125 0.524219 0
0.2625 0.521875 0
0.26875 0.782813 0
0.201563 0.779297 0
0.134375 0.775781 0
0.267188 0.717578 0
0.200391 0.714355 0
0.133594 0.711133 0
0.265625 0.652344 0
0.199219 0.649414 0
0.132812 0.646484 0
0.134375 0.775781 0
0.0671875 0.772266 0
0 0.76875 0
0.133594 0.711133 0
0.0667969 0.70791 0
0 0.704687 0
0.132812 0.646484 0
0.0664062 0.643555 0
0 0.640625 0
0.265625 0.652344 0
0.199219 0.649414 0
0.132812 0.646484 0
0.264062 0.587109 0
0.198047 0.584473 0
0.132031 0.581836 0
0.2625 0.521875 0
0.196875 0.519531 0
0.13125 0.517187 0
0.132812 0.646484 0
0.0664062 0.643555 0
0 0.640625 0
0.132031 0.581836 0
0.0660156 0.579199 0
0 0.576562 0
0.13125 0.517187 0
0.065625 0.514844 0
0 0.5125 0
1.05 0.55 0
0.984375 0.547656 0
0.91875 0.545313 0
1.04375 0.48125 0
0.978516 0.479199 0
0.913281 0.477148 0
1.0375 0.4125 0
0.972656 0.410742 0
0.907813 0.408984 0
0.91875 0.545313 0
0.853125 0.542969 0
0.7875 0.540625 0
0.913281 0.477148 0
0.848047 0.475098 0
0.782813 0.473047 0
0.907813 0.408984 0
0.842969 0.407227 0
0.778125 0.405469 0
1.0375 0.4125 0
0.972656 0.410742 0
0.907813 0.408984 0
1.03125 0.34375 0
0.966797 0.342285 0
0.902344 0.34082 0
1.025 0.275 0
0.960937 0.273828 0
0.896875 0.272656 0
0.907813 0.408984 0
0.842969 0.407227 0
0.778125 0.405469 0
0.902344 0.34082 0
0.837891 0.339355 0
0.773438 0.337891 0
0.896875 0.272656 0
0.832812 0.271484 0
0.76875 0.270313 0
0.7875 0.540625 0
0.721875 0.538281 0
0.65625 0.535937 0
0.782813 0.473047 0
0.717578 0.470996 0
0.652344 0.468945 0
0.778125 0.405469 0
0.713281 0.403711 0
0.648438 0.401953 0
0.65625 0.535937 0
0.590625 0.533594 0
0.525 0.53125 0
0.652344 0.468945 0
0.587109 0.466895 0
0.521875 0.464844 0
0.648438 0.401953 0
0.583594 0.400195 0
0.51875 0.398438 0
0.778125 0.405469 0
0.713281 0.403711 0
0.648438 0.401953 0
0.773438 0.337891 0
0.708984 0.336426 0
0.644531 0.334961 0
0.76875 0.270313 0
0.704687 0.269141 0
0.640625 0.267969 0
0.648438 0.401953 0
0.583594 0.400195 0
0.51875 0.398438 0
0.644531 0.334961 0
0.580078 0.333496 0
0.515625 0.332031 0
0.640625 0.267969 0
0.576562 0.266797 0
0.5125 0.265625 0
1.025 0.275 0
0.960937 0.273828 0
0.896875 0.272656 0
1.01875 0.20625 0
0.955078 0.205371 0
0.891406 0.204492 0
1.0125 0.1375 0
0.949219 0.136914 0
0.885937 0.136328 0
0.896875 0.272656 0
0.832812 0.271484 0
0.76875 0.270313 0
0.891406 0.204492 0
0.827734 0.203613 0
0.764062 0.202734 0
0.885937 0.136328 0
0.822656 0.135742 0
0.759375 0.135156 0
1.0125 0.1375 0
0.949219 0.136914 0
0.885937 0.136328 0
1.00625 0.06875 0
0.943359 0.068457 0
0.880469 0.0681641 0
1 0 0
0.9375 0 0
0.875 0 0
0.885937 0.136328 0
0.822656 0.135742 0
0.759375 0.135156 0
0.880469 0.0681641 0
0.817578 0.0678711 0
0.754687 0.0675781 0
0.875 0 0
0.8125 0 0
0.75 0 0
0.76875 0.270313 0
0.704687 0.269141 0
0.640625 0.267969 0
0.764062 0.202734 0
0.700391 0.201855 0
0.636719 0.200977 0
0.759375 0.135156 0
0.696094 0.13457 0
0.632812 0.133984 0
0.640625 0.267969 0
0.576562 0.266797 0
0.5125 0.265625 0
0.636719 0.200977 0
0.573047 0.200098 0
0.509375 0.199219 0
0.632812 0.133984 0
0.569531 0.133398 0
0.50625 0.132812 0
0.759375 0.135156 0
0.696094 0.13457 0
0.632812 0.133984 0
0.754687 0.0675781 0
0.691797 0.0672852 0
0.628906 0.0669922 0
0.75 0 0
0.6875 0 0
0.625 0 0
0.632812 0.133984 0
0.569531 0.133398 0
0.50625 0.132812 0
0.628906 0.0669922 0
0.566016 0.0666992 0
0.503125 0.0664062 0
0.625 0 0
0.5625 0 0
0.5 0 0
0.525 0.53125 0
0.459375 0.528906 0
0.39375 0.526563 0
0.521875 0.464844 0
0.456641 0.462793 0
0.391406 0.460742 0
0.51875 0.398438 0
0.453906 0.39668 0
0.389063 0.394922 0
0.39375 0.526563 0
0.328125 0.524219 0
0.2625 0.521875 0
0.391406 0.460742 0
0.326172 0.458691 0
0.260938 0.456641 0
0.389063 0.394922 0
0.324219 0.393164 0
0.259375 0.391406 0
0.51875 0.398438 0
0.453906 0.39668 0
0.389063 0.394922 0
0.515625 0.332031 0
0.451172 0.330566 0
0.386719 0.329102 0
0.5125 0.265625 0
0.448437 0.264453 0
0.384375 0.263281 0
0.389063 0.394922 0
0.324219 0.393164 0
0.259375 0.391406 0
0.386719 0.329102 0
0.322266 0.327637 0
0.257812 0.326172 0
0.384375 0.263281 0
0.320312 0.262109 0
0.25625 0.260937 0
0.2625 0.521875 0
0.196875 0.519531 0
0.13125 0.517187 0
0.260938 0.456641 0
0.195703 0.45459 0
0.130469 0.452539 0
0.259375 0.391406 0
0.194531 0.389648 0
0.129688 0.387891 0
0.13125 0.517187 0
0.065625 0.514844 0
0 0.5125 0
0.130469 0.452539 0
0.0652344 0.450488 0
0 0.448437 0
0.129688 0.387891 0
0.0648438 0.386133 0
0 0.384375 0
0.259375 0.391406 0
0.194531 0.389648 0
0.129688 0.387891 0
0.257812 0.326172 0
0.193359 0.324707 0
0.128906 0.323242 0
0.25625 0.260937 0
0.192187 0.259766 0
0.128125 0.258594 0
0.129688 0.387891 0
0.0648438 0.386133 0
0 0.384375 0
0.128906 0.323242 0
0.0644531 0.321777 0
0 0.320312 0
0.128125 0.258594 0
0.0640625 0.257422 0
0 0.25625 0
0.5125 0.265625 0
0.448437 0.264453 0
0.384375 0.263281 0
0.509375 0.199219 0
0.445703 0.19834 0
0.382031 0.197461 0
0.50625 0.132812 0
0.442969 0.132227 0
0.379688 0.131641 0
0.384375 0.263281 0
0.320312 0.262109 0
0.25625 0.260937 0
0.382031 0.197461 0
0.318359 0.196582 0
0.254687 0.195703 0
[...]
POINT_DATA 34560
VECTORS v double
1.26544 -0.334397 0
1.24726 -0.304338 0
1.23131 -0.276293 0
1.23209 -0.313353 0
1.21223 -0.286855 0
1.19481 -0.261252 0
1.19374 -0.292204 0
1.17282 -0.268398 0
1.15402 -0.245124 0
1.23131 -0.276293 0
1.21722 -0.249143 0
1.2051 -0.223573 0
1.19481 -0.261252 0
1.17902 -0.236463 0
1.16552 -0.212782 0
1.15402 -0.245124 0
1.13703 -0.222503 0
1.12213 -0.20063 0
1.19374 -0.292204 0
1.17282 -0.268398 0
1.15402 -0.245124 0
1.14963 -0.268743 0
1.1277 -0.247706 0
1.10789 -0.22698 0
1.0994 -0.245899 0
1.07698 -0.227379 0
1.05651 -0.208941 0
1.15402 -0.245124 0
1.13703 -0.222503 0
1.12213 -0.20063 0
1.10789 -0.22698 0
1.08986 -0.206642 0
1.0739 -0.186842 0
1.05651 -0.208941 0
1.03785 -0.190702 0
1.02116 -0.172802 0
1.2051 -0.223573 0
1.19398 -0.199133 0
1.1845 -0.176022 0
1.16552 -0.212782 0
1.15287 -0.189985 0
1.14219 -0.168303 0
1.12213 -0.20063 0
1.10832 -0.179517 0
1.09639 -0.159257 0
1.1845 -0.176022 0
1.17549 -0.154056 0
1.16781 -0.133242 0
1.14219 -0.168303 0
1.13193 -0.147526 0
1.12326 -0.127785 0
1.09639 -0.159257 0
1.08511 -0.139792 0
1.07544 -0.121189 0
1.12213 -0.20063 0
1.10832 -0.179517 0
1.09639 -0.159257 0
1.0739 -0.186842 0
1.05913 -0.167567 0
1.04623 -0.148961 0
1.02116 -0.172802 0
1.00573 -0.15527 0
0.992123 -0.138239 0
1.09639 -0.159257 0
1.08511 -0.139792 0
1.07544 -0.121189 0
1.04623 -0.148961 0
1.03416 -0.130974 0
1.02368 -0.113697 0
0.992123 -0.138239 0
0.979457 -0.121698 0
0.968389 -0.105735 0
1.0994 -0.245899 0
1.07698 -0.227379 0
1.05651 -0.208941 0
1.04398 -0.22257 0
1.02129 -0.206406 0
1.00046 -0.190164 0
0.984075 -0.199709 0
0.961296 -0.185661 0
0.940242 -0.171428 0
1.05651 -0.208941 0
1.03785 -0.190702 0
1.02116 -0.172802 0
1.00046 -0.190164 0
0.98136 -0.173961 0
0.964142 -0.15795 0
0.940242 -0.171428 0
0.920848 -0.157137 0
0.903247 -0.142926 0
0.984075 -0.199709 0
0.961296 -0.185661 0
0.940242 -0.171428 0
0.91969 -0.17614 0
0.896882 -0.164121 0
0.875723 -0.151868 0
0.850962 -0.153239 0
0.828293 -0.143082 0
0.807168 -0.132654 0
0.940242 -0.171428 0
0.920848 -0.157137 0
0.903247 -0.142926 0
0.875723 -0.151868 0
0.856149 -0.139485 0
0.838306 -0.127097 0
0.807168 -0.132654 0
0.787555 -0.12205 0
0.769597 -0.111383 0
1.02116 -0.172802 0
1.00573 -0.15527 0
0.992123 -0.138239 0
0.964142 -0.15795 0
0.94823 -0.142176 0
0.934087 -0.126765 0
0.903247 -0.142926 0
0.886979 -0.128849 0
0.872428 -0.115023 0
0.992123 -0.138239 0
0.979457 -0.121698 0
0.968389 -0.105735 0
0.934087 -0.126765 0
0.92098 -0.111728 0
0.909456 -0.0971526 0
0.872428 -0.115023 0
0.858994 -0.101476 0
0.847126 -0.0882924 0
0.903247 -0.142926 0
0.886979 -0.128849 0
0.872428 -0.115023 0
0.838306 -0.127097 0
0.8218 -0.114756 0
0.806975 -0.102572 0
0.769597 -0.111383 0
0.752969 -0.100703 0
0.737978 -0.0901101 0
0.872428 -0.115023 0
0.858994 -0.101476 0
0.847126 -0.0882924 0
0.806975 -0.102572 0
0.793322 -0.0905765 0
0.781228 -0.0788542 0
0.737978 -0.0901101 0
0.724203 -0.0796393 0
0.711974 -0.0693674 0
1.16781 -0.133242 0
1.1604 -0.113487 0
1.15405 -0.0947456 0
1.12326 -0.127785 0
1.11488 -0.108936 0
1.10778 -0.0910284 0
1.07544 -0.121189 0
1.06625 -0.103383 0
1.05838 -0.0864124 0
1.15405 -0.0947456 0
1.14785 -0.0769583 0
1.14248 -0.0600478 0
1.10778 -0.0910284 0
1.10089 -0.073968 0
1.09501 -0.0577386 0
1.05838 -0.0864124 0
1.05091 -0.0702197 0
1.04453 -0.0547928 0
1.07544 -0.121189 0
1.06625 -0.103383 0
1.05838 -0.0864124 0
1.02368 -0.113697 0
1.01387 -0.0970913 0
1.00541 -0.0812114 0
0.968389 -0.105735 0
0.958102 -0.090346 0
0.949184 -0.075584 0
1.05838 -0.0864124 0
1.05091 -0.0702197 0
1.04453 -0.0547928 0
1.00541 -0.0812114 0
0.997513 -0.0660242 0
0.990752 -0.051526 0
0.949184 -0.075584 0
0.940967 -0.0614441 0
0.933919 -0.047929 0
1.14248 -0.0600478 0
1.13734 -0.0439648 0
1.13286 -0.0286286 0
1.09501 -0.0577386 0
1.08945 -0.0422835 0
1.08471 -0.0275483 0
1.04453 -0.0547928 0
1.03861 -0.0400947 0
1.03361 -0.0260897 0
1.13286 -0.0286286 0
1.12865 -0.0139939 0
1.125 0 0
1.08471 -0.0275483 0
1.08034 -0.0134863 0
1.07666 0 0
1.03361 -0.0260897 0
1.02911 -0.0127422 0
1.02539 0 0
1.04453 -0.0547928 0
1.03861 -0.0400947 0
1.03361 -0.0260897 0
0.990752 -0.051526 0
0.984597 -0.0377011 0
0.97941 -0.0245304 0
0.933919 -0.047929 0
0.927588 -0.0350458 0
0.92227 -0.0227777 0
1.03361 -0.0260897 0
1.02911 -0.0127422 0
1.02539 0 0
0.97941 -0.0245304 0
0.974874 -0.0119873 0
0.971191 0 0
0.92227 -0.0227777 0
0.917713 -0.0111132 0
0.914062 0 0
0.968389 -0.105735 0
0.958102 -0.090346 0
0.949184 -0.075584 0
0.909456 -0.0971526 0
0.898818 -0.0830552 0
0.889559 -0.0694924 0
0.847126 -0.0882924 0
0.836236 -0.0755046 0
0.82673 -0.0631689 0
0.949184 -0.075584 0
0.940967 -0.0614441 0
0.933919 -0.047929 0
0.889559 -0.0694924 0
0.881117 -0.05648 0
0.873871 -0.0440306 0
0.82673 -0.0631689 0
0.818141 -0.051321 0
0.810772 -0.0399784 0
0.847126 -0.0882924 0
0.836236 -0.0755046 0
0.82673 -0.0631689 0
0.781228 -0.0788542 0
0.770184 -0.0674443 0
0.760536 -0.0564064 0
0.711974 -0.0693674 0
0.700858 -0.0593396 0
0.691147 -0.0496124 0
0.82673 -0.0631689 0
0.818141 -0.051321 0
0.810772 -0.0399784 0
0.760536 -0.0564064 0
0.751884 -0.0457869 0
0.744476 -0.0356149 0
0.691147 -0.0496124 0
0.682504 -0.0402437 0
0.675124 -0.0312668 0
0.933919 -0.047929 0
0.927588 -0.0350458 0
0.92227 -0.0227777 0
0.873871 -0.0440306 0
0.86744 -0.0321648 0
0.862061 -0.0208758 0
0.810772 -0.0399784 0
0.804299 -0.0291776 0
0.798907 -0.0189165 0
0.92227 -0.0227777 0
0.917713 -0.0111132 0
0.914062 0 0
0.862061 -0.0208758 0
0.857551 -0.0101659 0
0.854004 0 0
0.798907 -0.0189165 0
0.794464 -0.0092079 0
0.791016 0 0
0.810772 -0.0399784 0
0.804299 -0.0291776 0
0.798907 -0.0189165 0
0.744476 -0.0356149 0
0.73803 -0.0259373 0
0.732692 -0.0167631 0
0.675124 -0.0312668 0
0.668762 -0.022741 0
0.663527 -0.0146789 0
0.798907 -0.0189165 0
0.794464 -0.0092079 0
0.791016 0 0
0.732692 -0.0167631 0
0.728378 -0.0081176 0
0.725098 0 0
0.663527 -0.0146789 0
0.659365 -0.00711617 0
0.65625 0 0
0.850962 -0.153239 0
0.828293 -0.143082 0
0.807168 -0.132654 0
0.778343 -0.13001 0
0.755842 -0.121581 0
0.734811 -0.112886 0
0.701669 -0.107313 0
0.679443 -0.100502 0
0.658598 -0.0934431 0
0.807168 -0.132654 0
0.787555 -0.12205 0
0.769597 -0.111383 0
0.734811 -0.112886 0
0.715206 -0.104001 0
0.6972 -0.095028 0
0.658598 -0.0934431 0
0.639106 -0.0861965 0
0.621146 -0.0788546 0
0.701669 -0.107313 0
0.679443 -0.100502 0
0.658598 -0.0934431 0
0.620697 -0.0843646 0
0.598827 -0.0790603 0
0.578282 -0.0735522 0
0.533471 -0.0621341 0
0.512304 -0.0582548 0
0.492387 -0.0542223 0
0.658598 -0.0934431 0
0.639106 -0.0861965 0
0.621146 -0.0788546 0
0.578282 -0.0735522 0
0.559007 -0.0678818 0
0.541213 -0.0621291 0
0.492387 -0.0542223 0
0.473662 -0.0500598 0
0.456353 -0.0458379 0
0.769597 -0.111383 0
0.752969 -0.100703 0
0.737978 -0.0901101 0
0.6972 -0.095028 0
0.680507 -0.0860081 0
0.66542 -0.0770274 0
0.621146 -0.0788546 0
0.604481 -0.0714462 0
0.589385 -0.0640473 0
0.737978 -0.0901101 0
0.724203 -0.0796393 0
0.711974 -0.0693674 0
0.66542 -0.0770274 0
0.65158 -0.0681166 0
0.639284 -0.0593447 0
0.589385 -0.0640473 0
0.575558 -0.0566817 0
0.563268 -0.0494091 0
0.621146 -0.0788546 0
0.604481 -0.0714462 0
0.589385 -0.0640473 0
0.541213 -0.0621291 0
0.524681 -0.0563122 0
0.509686 -0.0504946 0
0.456353 -0.0458379 0
0.440261 -0.0415625 0
0.42565 -0.0372879 0
0.589385 -0.0640473 0
0.575558 -0.0566817 0
0.563268 -0.0494091 0
0.509686 -0.0504946 0
0.495965 -0.0446914 0
0.483772 -0.038951 0
0.42565 -0.0372879 0
0.412293 -0.0330189 0
0.400431 -0.0287954 0
0.533471 -0.0621341 0
0.512304 -0.0582548 0
0.492387 -0.0542223 0
0.436589 -0.040483 0
0.416753 -0.0379028 0
0.398118 -0.0352311 0
0.321946 -0.0209228 0
0.305112 -0.0195781 0
0.28934 -0.0181959 0
0.492387 -0.0542223 0
0.473662 -0.0500598 0
0.456353 -0.0458379 0
0.398118 -0.0352311 0
0.38058 -0.0324748 0
0.364392 -0.0296914 0
0.28934 -0.0181959 0
0.27452 -0.0167606 0
0.260888 -0.0153211 0
0.321946 -0.0209228 0
0.305112 -0.0195781 0
0.28934 -0.0181959 0
0.178471 -0.00612065 0
0.167733 -0.00569298 0
0.157804 -0.0052705 0
0 0 0
0 0 0
0 0 0
0.28934 -0.0181959 0
0.27452 -0.0167606 0
0.260888 -0.0153211 0
0.157804 -0.0052705 0
0.14846 -0.00482147 0
0.139979 -0.00438713 0
0 0 0
0 0 0
0 0 0
0.456353 -0.0458379 0
0.440261 -0.0415625 0
0.42565 -0.0372879 0
0.364392 -0.0296914 0
0.349344 -0.0268768 0
0.335702 -0.0240737 0
0.260888 -0.0153211 0
0.248246 -0.0138623 0
0.236827 -0.0124189 0
0.42565 -0.0372879 0
0.412293 -0.0330189 0
0.400431 -0.0287954 0
0.335702 -0.0240737 0
0.323247 -0.0212797 0
0.312209 -0.0185252 0
0.236827 -0.0124189 0
0.226429 -0.0109802 0
0.21725 -0.00957079 0
0.260888 -0.0153211 0
0.248246 -0.0138623 0
0.236827 -0.0124189 0
0.139979 -0.00438713 0
0.132109 -0.00394049 0
0.125098 -0.00351156 0
0 0 0
0 0 0
0 0 0
0.236827 -0.0124189 0
0.226429 -0.0109802 0
0.21725 -0.00957079 0
0.125098 -0.00351156 0
0.118708 -0.00307991 0
0.113143 -0.00266782 0
0 0 0
0 0 0
0 0 0
0.711974 -0.0693674 0
0.700858 -0.0593396 0
0.691147 -0.0496124 0
0.639284 -0.0593447 0
0.628158 -0.0507536 0
0.618455 -0.0423958 0
0.563268 -0.0494091 0
0.552197 -0.0422649 0
0.542567 -0.0352954 0
0.691147 -0.0496124 0
0.682504 -0.0402437 0
0.675124 -0.0312668 0
0.618455 -0.0423958 0
0.609882 -0.0343307 0
0.602598 -0.0265993 0
0.542567 -0.0352954 0
0.534124 -0.0285578 0
0.526999 -0.022094 0
0.563268 -0.0494091 0
0.552197 -0.0422649 0
0.542567 -0.0352954 0
0.483772 -0.038951 0
0.472835 -0.0332983 0
0.463356 -0.0277696 0
0.400431 -0.0287954 0
0.389829 -0.0246297 0
0.380673 -0.0205473 0
0.542567 -0.0352954 0
0.534124 -0.0285578 0
0.526999 -0.022094 0
0.463356 -0.0277696 0
0.455114 -0.0224111 0
0.44822 -0.0172622 0
0.380673 -0.0205473 0
0.372779 -0.0165786 0
0.366241 -0.0127574 0
0.675124 -0.0312668 0
0.668762 -0.022741 0
0.663527 -0.0146789 0
0.602598 -0.0265993 0
0.59638 -0.0192677 0
0.591309 -0.0123609 0
0.526999 -0.022094 0
0.520981 -0.0159759 0
0.516128 -0.0102326 0
0.663527 -0.0146789 0
0.659365 -0.00711617 0
0.65625 0 0
0.591309 -0.0123609 0
0.587355 -0.00592575 0
0.584473 0 0
0.516128 -0.0102326 0
0.512413 -0.0049248 0
0.509766 0 0
0.526999 -0.022094 0
0.520981 -0.0159759 0
0.516128 -0.0102326 0
0.44822 -0.0172622 0
0.442469 -0.0123913 0
0.437898 -0.00784278 0
0.366241 -0.0127574 0
0.360864 -0.00914105 0
0.356665 -0.00576674 0
0.516128 -0.0102326 0
0.512413 -0.0049248 0
0.509766 0 0
0.437898 -0.00784278 0
0.434477 -0.00368523 0
0.432129 0 0
0.356665 -0.00576674 0
0.353596 -0.00272912 0
0.351562 0 0
0.400431 -0.0287954 0
0.389829 -0.0246297 0
0.380673 -0.0205473 0
0.312209 -0.0185252 0
0.302377 -0.0158134 0
0.293926 -0.0131569 0
0.21725 -0.00957079 0
0.209105 -0.00818473 0
0.20214 -0.00682971 0
0.380673 -0.0205473 0
0.372779 -0.0165786 0
0.366241 -0.0127574 0
0.293926 -0.0131569 0
0.286689 -0.0105707 0
0.280764 -0.00807699 0
0.20214 -0.00682971 0
0.19621 -0.0055066 0
0.191405 -0.00423156 0
0.21725 -0.00957079 0
0.209105 -0.00818473 0
0.20214 -0.00682971 0
0.113143 -0.00266782 0
0.108203 -0.00226241 0
0.104039 -0.00187156 0
0 0 0
0 0 0
0 0 0
0.20214 -0.00682971 0
0.19621 -0.0055066 0
0.191405 -0.00423156 0
0.104039 -0.00187156 0
0.100492 -0.0014862 0
0.0976592 -0.00112114 0
0 0 0
0 0 0
0 0 0
0.366241 -0.0127574 0
0.360864 -0.00914105 0
0.356665 -0.00576674 0
0.280764 -0.00807699 0
0.27597 -0.00571041 0
0.27232 -0.00350197 0
0.191405 -0.00423156 0
0.187587 -0.00301601 0
0.184769 -0.00186069 0
0.356665 -0.00576674 0
0.353596 -0.00272912 0
0.351562 0 0
0.27232 -0.00350197 0
0.269716 -0.00153227 0
0.268066 0 0
0.184769 -0.00186069 0
0.182822 -0.000842248 0
0.181641 0 0
0.191405 -0.00423156 0
0.187587 -0.00301601 0
0.184769 -0.00186069 0
0.0976592 -0.00112114 0
0.0954303 -0.000778368 0
0.0938745 -0.000444032 0
0 0 0
0 0 0
0 0 0
0.184769 -0.00186069 0
0.182822 -0.000842248 0
0.181641 0 0
0.0938745 -0.000444032 0
0.0928332 -0.000119769 0
0.0922852 0 0
0 0 0
0 0 0
0 0 0
1.80422 -0.409498 0
1.76244 -0.440441 0
1.71727 -0.46526 0
1.73447 -0.356821 0
1.69661 -0.38579 0
1.65592 -0.409389 0
1.65899 -0.310929 0
1.62611 -0.337923 0
1.59046 -0.36039 0
1.71727 -0.46526 0
1.67176 -0.483149 0
1.62436 -0.494704 0
1.65592 -0.409389 0
1.61471 -0.42738 0
1.57184 -0.4398 0
1.59046 -0.36039 0
1.55418 -0.378161 0
1.51625 -0.391109 0
1.65899 -0.310929 0
1.62611 -0.337923 0
1.59046 -0.36039 0
1.588 -0.273337 0
1.55879 -0.297068 0
1.5271 -0.317118 0
1.51409 -0.236521 0
1.48713 -0.258103 0
1.45791 -0.276534 0
1.59046 -0.36039 0
1.55418 -0.378161 0
1.51625 -0.391109 0
1.5271 -0.317118 0
1.49454 -0.333232 0
1.46035 -0.345357 0
1.45791 -0.276534 0
1.4279 -0.291638 0
1.39639 -0.303336 0
1.62436 -0.494704 0
1.57986 -0.50001 0
1.53512 -0.499293 0
1.57184 -0.4398 0
1.53125 -0.446792 0
1.49036 -0.448886 0
1.51625 -0.391109 0
1.47993 -0.399453 0
1.44318 -0.403336 0
1.53512 -0.499293 0
1.49478 -0.49412 0
1.45536 -0.484418 0
1.49036 -0.448886 0
1.45297 -0.446633 0
1.41634 -0.440408 0
1.44318 -0.403336 0
1.40899 -0.403251 0
1.37531 -0.399451 0
1.51625 -0.391109 0
1.47993 -0.399453 0
1.44318 -0.403336 0
1.46035 -0.345357 0
1.42712 -0.353568 0
1.39324 -0.358027 0
1.39639 -0.303336 0
1.36555 -0.311698 0
1.3341 -0.316836 0
1.44318 -0.403336 0
1.40899 -0.403251 0
1.37531 -0.399451 0
1.39324 -0.358027 0
1.36122 -0.359112 0
1.32944 -0.356973 0
1.3341 -0.316836 0
1.30408 -0.319002 0
1.27424 -0.318316 0
1.51409 -0.236521 0
1.48713 -0.258103 0
1.45791 -0.276534 0
1.43729 -0.204635 0
1.41261 -0.224268 0
1.38581 -0.241164 0
1.36095 -0.174469 0
1.33819 -0.192284 0
1.31336 -0.207767 0
1.45791 -0.276534 0
1.4279 -0.291638 0
1.39639 -0.303336 0
1.38581 -0.241164 0
1.35824 -0.255161 0
1.32923 -0.266216 0
1.31336 -0.207767 0
1.28775 -0.220751 0
1.26073 -0.231199 0
1.36095 -0.174469 0
1.33819 -0.192284 0
1.31336 -0.207767 0
1.28382 -0.147204 0
1.26257 -0.163031 0
1.23937 -0.176869 0
1.20461 -0.121296 0
1.18458 -0.135346 0
1.16262 -0.147724 0
1.31336 -0.207767 0
1.28775 -0.220751 0
1.26073 -0.231199 0
1.23937 -0.176869 0
1.21532 -0.188578 0
1.18987 -0.19813 0
1.16262 -0.147724 0
1.13982 -0.158305 0
1.11564 -0.167056 0
1.39639 -0.303336 0
1.36555 -0.311698 0
1.3341 -0.316836 0
1.32923 -0.266216 0
1.30068 -0.274367 0
1.27147 -0.279698 0
1.26073 -0.231199 0
1.23393 -0.239121 0
1.20643 -0.244583 0
1.3341 -0.316836 0
1.30408 -0.319002 0
1.27424 -0.318316 0
1.27147 -0.279698 0
1.24336 -0.282408 0
1.21531 -0.282581 0
1.20643 -0.244583 0
1.17974 -0.247731 0
1.153 -0.248633 0
1.26073 -0.231199 0
1.23393 -0.239121 0
1.20643 -0.244583 0
1.18987 -0.19813 0
1.16446 -0.205532 0
1.13831 -0.210825 0
1.11564 -0.167056 0
1.09138 -0.173976 0
1.06636 -0.179093 0
1.20643 -0.244583 0
1.17974 -0.247731 0
1.153 -0.248633 0
1.13831 -0.210825 0
1.11273 -0.214133 0
1.08703 -0.215491 0
1.06636 -0.179093 0
1.04175 -0.182497 0
1.01695 -0.184213 0
1.45536 -0.484418 0
1.42111 -0.471809 0
1.38881 -0.455654 0
1.41634 -0.440408 0
1.38413 -0.430917 0
1.35358 -0.418645 0
1.37531 -0.399451 0
1.34506 -0.392643 0
1.31616 -0.383067 0
1.38881 -0.455654 0
1.36089 -0.438049 0
1.33533 -0.418541 0
1.35358 -0.418645 0
1.32678 -0.404387 0
1.3021 -0.388207 0
1.31616 -0.383067 0
1.29022 -0.371351 0
1.26602 -0.357682 0
1.37531 -0.399451 0
1.34506 -0.392643 0
1.31616 -0.383067 0
1.32944 -0.356973 0
1.3004 -0.35214 0
1.27237 -0.344784 0
1.27424 -0.318316 0
1.24664 -0.315174 0
1.21994 -0.30976 0
1.31616 -0.383067 0
1.29022 -0.371351 0
1.26602 -0.357682 0
1.27237 -0.344784 0
1.24686 -0.335485 0
1.22287 -0.324353 0
1.21994 -0.30976 0
1.19539 -0.302499 0
1.1722 -0.293496 0
1.33533 -0.418541 0
1.31377 -0.398303 0
1.29501 -0.376852 0
1.3021 -0.388207 0
1.28102 -0.370753 0
1.26234 -0.352226 0
1.26602 -0.357682 0
1.24482 -0.342662 0
1.22569 -0.326444 0
1.29501 -0.376852 0
1.27907 -0.355554 0
1.26544 -0.334397 0
1.26234 -0.352226 0
1.24606 -0.333109 0
1.23209 -0.313353 0
1.22569 -0.326444 0
1.20867 -0.309526 0
1.19374 -0.292204 0
1.26602 -0.357682 0
1.24482 -0.342662 0
1.22569 -0.326444 0
1.22287 -0.324353 0
1.20163 -0.311907 0
1.1823 -0.298278 0
1.1722 -0.293496 0
1.15142 -0.283156 0
1.13234 -0.271613 0
1.22569 -0.326444 0
1.20867 -0.309526 0
1.19374 -0.292204 0
1.1823 -0.298278 0
1.16499 -0.283873 0
1.14963 -0.268743 0
1.13234 -0.271613 0
1.115 -0.259153 0
1.0994 -0.245899 0
1.27424 -0.318316 0
1.24664 -0.315174 0
1.21994 -0.30976 0
1.21531 -0.282581 0
1.18906 -0.28055 0
1.16352 -0.276461 0
1.153 -0.248633 0
1.1277 -0.247554 0
1.10295 -0.24462 0
1.21994 -0.30976 0
1.19539 -0.302499 0
1.1722 -0.293496 0
1.16352 -0.276461 0
1.13975 -0.270667 0
1.11712 -0.263241 0
1.10295 -0.24462 0
1.0797 -0.240115 0
1.05744 -0.234117 0
1.153 -0.248633 0
1.1277 -0.247554 0
1.10295 -0.24462 0
1.08703 -0.215491 0
1.06248 -0.215124 0
1.03839 -0.213111 0
1.01695 -0.184213 0
0.993079 -0.184415 0
0.969552 -0.183173 0
1.10295 -0.24462 0
1.0797 -0.240115 0
1.05744 -0.234117 0
1.03839 -0.213111 0
1.01556 -0.209697 0
0.993604 -0.204934 0
0.969552 -0.183173 0
0.947091 -0.180677 0
0.925384 -0.176975 0
1.1722 -0.293496 0
1.15142 -0.283156 0
1.13234 -0.271613 0
1.11712 -0.263241 0
1.09653 -0.254546 0
1.07743 -0.244722 0
1.05744 -0.234117 0
1.03697 -0.226936 0
1.01785 -0.218691 0
1.13234 -0.271613 0
1.115 -0.259153 0
1.0994 -0.245899 0
1.07743 -0.244722 0
1.0599 -0.234049 0
1.04398 -0.22257 0
1.01785 -0.218691 0
1.00021 -0.209597 0
0.984075 -0.199709 0
1.05744 -0.234117 0
1.03697 -0.226936 0
1.01785 -0.218691 0
0.993604 -0.204934 0
0.973204 -0.199079 0
0.954021 -0.192221 0
0.925384 -0.176975 0
0.905019 -0.172273 0
0.885754 -0.166661 0
1.01785 -0.218691 0
1.00021 -0.209597 0
0.984075 -0.199709 0
0.954021 -0.192221 0
0.936171 -0.184554 0
0.91969 -0.17614 0
0.885754 -0.166661 0
0.867712 -0.1603 0
0.850962 -0.153239 0
1.20461 -0.121296 0
1.18458 -0.135346 0
1.16262 -0.147724 0
1.12393 -0.0981233 0
1.10498 -0.110352 0
1.08415 -0.12118 0
1.04053 -0.0758312 0
1.02261 -0.0863207 0
1.00277 -0.0956658 0
1.16262 -0.147724 0
1.13982 -0.158305 0
1.11564 -0.167056 0
1.08415 -0.12118 0
1.06243 -0.130492 0
1.03934 -0.138262 0
1.00277 -0.0956658 0
0.982006 -0.103763 0
0.959834 -0.110588 0
1.04053 -0.0758312 0
1.02261 -0.0863207 0
1.00277 -0.0956658 0
0.951419 -0.0556988 0
0.934781 -0.0643422 0
0.916167 -0.0720824 0
0.850259 -0.0371706 0
0.835474 -0.0439153 0
0.818555 -0.0500001 0
1.00277 -0.0956658 0
0.982006 -0.103763 0
0.959834 -0.110588 0
0.916167 -0.0720824 0
0.896515 -0.0788289 0
0.875388 -0.0845595 0
0.818555 -0.0500001 0
0.800473 -0.0553504 0
0.780794 -0.0599373 0
1.11564 -0.167056 0
1.09138 -0.173976 0
1.06636 -0.179093 0
1.03934 -0.138262 0
1.01605 -0.144482 0
0.991949 -0.149173 0
0.959834 -0.110588 0
0.937343 -0.116127 0
0.913997 -0.120395 0
1.06636 -0.179093 0
1.04175 -0.182497 0
1.01695 -0.184213 0
0.991949 -0.149173 0
0.968103 -0.152406 0
0.943994 -0.154201 0
0.913997 -0.120395 0
0.890772 -0.123446 0
0.867219 -0.125292 0
0.959834 -0.110588 0
0.937343 -0.116127 0
0.913997 -0.120395 0
0.875388 -0.0845595 0
0.853804 -0.0892614 0
0.831285 -0.092939 0
0.780794 -0.0599373 0
0.760502 -0.0637494 0
0.739166 -0.0667805 0
0.913997 -0.120395 0
0.890772 -0.123446 0
0.867219 -0.125292 0
0.831285 -0.092939 0
0.808747 -0.0956356 0
0.785795 -0.0973538 0
0.739166 -0.0667805 0
0.717657 -0.0690645 0
0.695635 -0.0705944 0
0.850259 -0.0371706 0
0.835474 -0.0439153 0
0.818555 -0.0500001 0
0.725673 -0.0218488 0
0.713786 -0.0265395 0
0.699646 -0.0308017 0
0.558256 -0.00933176 0
0.550272 -0.0119437 0
0.540085 -0.0143388 0
0.818555 -0.0500001 0
0.800473 -0.0553504 0
0.780794 -0.0599373 0
0.699646 -0.0308017 0
0.684156 -0.0345805 0
0.666925 -0.037843 0
0.540085 -0.0143388 0
0.528494 -0.0164916 0
0.515166 -0.0183678 0
0.558256 -0.00933176 0
0.550272 -0.0119437 0
0.540085 -0.0143388 0
0.324036 -0.00260818 0
0.320272 -0.00341811 0
0.314845 -0.00415506 0
0 0 0
0 0 0
0 0 0
0.540085 -0.0143388 0
0.528494 -0.0164916 0
0.515166 -0.0183678 0
0.314845 -0.00415506 0
0.308444 -0.00482775 0
0.30068 -0.00540043 0
0 0 0
0 0 0
0 0 0
0.780794 -0.0599373 0
0.760502 -0.0637494 0
0.739166 -0.0667805 0
0.666925 -0.037843 0
0.648878 -0.040582 0
0.629645 -0.0427815 0
0.515166 -0.0183678 0
0.50089 -0.0199731 0
0.485385 -0.0212798 0
0.739166 -0.0667805 0
0.717657 -0.0690645 0
0.695635 -0.0705944 0
0.629645 -0.0427815 0