# vtk DataFile Version 3.0
#This file was generated by the deal.II library on 2025/1/8 at 1:56:38
ASCII
DATASET UNSTRUCTURED_GRID

POINTS 34560 double
1.1 1.1 0
1.03125 1.09531 0
0.9625 1.09063 0
1.09375 1.03125 0
1.02539 1.02686 0
0.957031 1.02246 0
1.0875 0.9625 0
1.01953 0.958398 0
0.951563 0.954297 0
0.9625 1.09063 0
0.89375 1.08594 0
0.825 1.08125 0
0.957031 1.02246 0
0.888672 1.01807 0
0.820312 1.01367 0
0.951563 0.954297 0
0.883594 0.950195 0
0.815625 0.946094 0
1.0875 0.9625 0
1.01953 0.958398 0
0.951563 0.954297 0
1.08125 0.89375 0
1.01367 0.889941 0
0.946094 0.886133 0
1.075 0.825 0
1.00781 0.821484 0
0.940625 0.817969 0
0.951563 0.954297 0
0.883594 0.950195 0
0.815625 0.946094 0
0.946094 0.886133 0
0.878516 0.882324 0
0.810938 0.878516 0
0.940625 0.817969 0
0.873438 0.814453 0
0.80625 0.810937 0
0.825 1.08125 0
0.75625 1.07656 0
0.6875 1.07187 0
0.820312 1.01367 0
0.751953 1.00928 0
0.683594 1.00488 0
0.815625 0.946094 0
0.747656 0.941992 0
0.679688 0.937891 0
0.6875 1.07187 0
0.61875 1.06719 0
0.55 1.0625 0
0.683594 1.00488 0
0.615234 1.00049 0
0.546875 0.996094 0
0.679688 0.937891 0
0.611719 0.933789 0
0.54375 0.929688 0
0.815625 0.946094 0
0.747656 0.941992 0
0.679688 0.937891 0
0.810938 0.878516 0
0.743359 0.874707 0
0.675781 0.870898 0
0.80625 0.810937 0
0.739063 0.807422 0
0.671875 0.803906 0
0.679688 0.937891 0
0.611719 0.933789 0
0.54375 0.929688 0
0.675781 0.870898 0
0.608203 0.86709 0
0.540625 0.863281 0
0.671875 0.803906 0
0.604688 0.800391 0
0.5375 0.796875 0
1.075 0.825 0
1.00781 0.821484 0
0.940625 0.817969 0
1.06875 0.75625 0
1.00195 0.753027 0
0.935156 0.749805 0
1.0625 0.6875 0
0.996094 0.68457 0
0.929688 0.681641 0
0.940625 0.817969 0
0.873438 0.814453 0
0.80625 0.810937 0
0.935156 0.749805 0
0.868359 0.746582 0
0.801563 0.743359 0
0.929688 0.681641 0
0.863281 0.678711 0
0.796875 0.675781 0
1.0625 0.6875 0
0.996094 0.68457 0
0.929688 0.681641 0
1.05625 0.61875 0
0.990234 0.616113 0
0.924219 0.613477 0
1.05 0.55 0
0.984375 0.547656 0
0.91875 0.545313 0
0.929688 0.681641 0
0.863281 0.678711 0
0.796875 0.675781 0
0.924219 0.613477 0
0.858203 0.61084 0
0.792188 0.608203 0
0.91875 0.545313 0
0.853125 0.542969 0
0.7875 0.540625 0
0.80625 0.810937 0
0.739063 0.807422 0
0.671875 0.803906 0
0.801563 0.743359 0
0.734766 0.740137 0
0.667969 0.736914 0
0.796875 0.675781 0
0.730469 0.672852 0
0.664062 0.669922 0
0.671875 0.803906 0
0.604688 0.800391 0
0.5375 0.796875 0
0.667969 0.736914 0
0.601172 0.733691 0
0.534375 0.730469 0
0.664062 0.669922 0
0.597656 0.666992 0
0.53125 0.664062 0
0.796875 0.675781 0
0.730469 0.672852 0
0.664062 0.669922 0
0.792188 0.608203 0
0.726172 0.605566 0
0.660156 0.60293 0
0.7875 0.540625 0
0.721875 0.538281 0
0.65625 0.535937 0
0.664062 0.669922 0
0.597656 0.666992 0
0.53125 0.664062 0
0.660156 0.60293 0
0.594141 0.600293 0
0.528125 0.597656 0
0.65625 0.535937 0
0.590625 0.533594 0
0.525 0.53125 0
0.55 1.0625 0
0.48125 1.05781 0
0.4125 1.05313 0
0.546875 0.996094 0
0.478516 0.991699 0
0.410156 0.987305 0
0.54375 0.929688 0
0.475781 0.925586 0
0.407813 0.921484 0
0.4125 1.05313 0
0.34375 1.04844 0
0.275 1.04375 0
0.410156 0.987305 0
0.341797 0.98291 0
0.273438 0.978516 0
0.407813 0.921484 0
0.339844 0.917383 0
0.271875 0.913281 0
0.54375 0.929688 0
0.475781 0.925586 0
0.407813 0.921484 0
0.540625 0.863281 0
0.473047 0.859473 0
0.405469 0.855664 0
0.5375 0.796875 0
0.470313 0.793359 0
0.403125 0.789844 0
0.407813 0.921484 0
0.339844 0.917383 0
0.271875 0.913281 0
0.405469 0.855664 0
0.337891 0.851855 0
0.270313 0.848047 0
0.403125 0.789844 0
0.335938 0.786328 0
0.26875 0.782813 0
0.275 1.04375 0
0.20625 1.03906 0
0.1375 1.03437 0
0.273438 0.978516 0
0.205078 0.974121 0
0.136719 0.969727 0
0.271875 0.913281 0
0.203906 0.90918 0
0.135938 0.905078 0
0.1375 1.03437 0
0.06875 1.02969 0
0 1.025 0
0.136719 0.969727 0
0.0683594 0.965332 0
0 0.960937 0
0.135938 0.905078 0
0.0679688 0.900977 0
0 0.896875 0
0.271875 0.913281 0
0.203906 0.90918 0
0.135938 0.905078 0
0.270313 0.848047 0
0.202734 0.844238 0
0.135156 0.84043 0
0.26875 0.782813 0
0.201563 0.779297 0
0.134375 0.775781 0
0.135938 0.905078 0
0.0679688 0.900977 0
0 0.896875 0
0.135156 0.84043 0
0.0675781 0.836621 0
0 0.832812 0
0.134375 0.775781 0
0.0671875 0.772266 0
0 0.76875 0
0.5375 0.796875 0
0.470313 0.793359 0
0.403125 0.789844 0
0.534375 0.730469 0
0.467578 0.727246 0
0.400781 0.724023 0
0.53125 0.664062 0
0.464844 0.661133 0
0.398438 0.658203 0
0.403125 0.789844 0
0.335938 0.786328 0
0.26875 0.782813 0
0.400781 0.724023 0
0.333984 0.720801 0
0.267188 0.717578 0
0.398438 0.658203 0
0.332031 0.655273 0
0.265625 0.652344 0
0.53125 0.664062 0
0.464844 0.661133 0
0.398438 0.658203 0
0.528125 0.597656 0
0.462109 0.59502 0
0.396094 0.592383 0
0.525 0.53125 0
0.459375 0.528906 0
0.39375 0.526563 0
0.398438 0.658203 0
0.332031 0.655273 0
0.265625 0.652344 0
0.396094 0.592383 0
0.330078 0.589746 0
0.264062 0.587109 0
0.39375 0.526563 0
0.328125 0.524219 0
0.2625 0.521875 0
0.26875 0.782813 0
0.201563 0.779297 0
0.134375 0.775781 0
0.267188 0.717578 0
0.200391 0.714355 0
0.133594 0.711133 0
0.265625 0.652344 0
0.199219 0.649414 0
0.132812 0.646484 0
0.134375 0.775781 0
0.0671875 0.772266 0
0 0.76875 0
0.133594 0.711133 0
0.0667969 0.70791 0
0 0.704687 0
0.132812 0.646484 0
0.0664062 0.643555 0
0 0.640625 0
0.265625 0.652344 0
0.199219 0.649414 0
0.132812 0.646484 0
0.264062 0.587109 0
0.198047 0.584473 0
0.132031 0.581836 0
0.2625 0.521875 0
0.196875 0.519531 0
0.13125 0.517187 0
0.132812 0.646484 0
0.0664062 0.643555 0
0 0.640625 0
0.132031 0.581836 0
0.0660156 0.579199 0
0 0.576562 0
0.13125 0.517187 0
0.065625 0.514844 0
0 0.5125 0
1.05 0.55 0
0.984375 0.547656 0
0.91875 0.545313 0
1.04375 0.48125 0
0.978516 0.479199 0
0.913281 0.477148 0
1.0375 0.4125 0
0.972656 0.410742 0
0.907813 0.408984 0
0.91875 0.545313 0
0.853125 0.542969 0
0.7875 0.540625 0
0.913281 0.477148 0
0.848047 0.475098 0
0.782813 0.473047 0
0.907813 0.408984 0
0.842969 0.407227 0
0.778125 0.405469 0
1.0375 0.4125 0
0.972656 0.410742 0
0.907813 0.408984 0
1.03125 0.34375 0
0.966797 0.342285 0
0.902344 0.34082 0
1.025 0.275 0
0.960937 0.273828 0
0.896875 0.272656 0
0.907813 0.408984 0
0.842969 0.407227 0
0.778125 0.405469 0
0.902344 0.34082 0
0.837891 0.339355 0
0.773438 0.337891 0
0.896875 0.272656 0
0.832812 0.271484 0
0.76875 0.270313 0
0.7875 0.540625 0
0.721875 0.538281 0
0.65625 0.535937 0
0.782813 0.473047 0
0.717578 0.470996 0
0.652344 0.468945 0
0.778125 0.405469 0
0.713281 0.403711 0
0.648438 0.401953 0
0.65625 0.535937 0
0.590625 0.533594 0
0.525 0.53125 0
0.652344 0.468945 0
0.587109 0.466895 0
0.521875 0.464844 0
0.648438 0.401953 0
0.583594 0.400195 0
0.51875 0.398438 0
0.778125 0.405469 0
0.713281 0.403711 0
0.648438 0.401953 0
0.773438 0.337891 0
0.708984 0.336426 0
0.644531 0.334961 0
0.76875 0.270313 0
0.704687 0.269141 0
0.640625 0.267969 0
0.648438 0.401953 0
0.583594 0.400195 0
0.51875 0.398438 0
0.644531 0.334961 0
0.580078 0.333496 0
0.515625 0.332031 0
0.640625 0.267969 0
0.576562 0.266797 0
0.5125 0.265625 0
1.025 0.275 0
0.960937 0.273828 0
0.896875 0.272656 0
1.01875 0.20625 0
0.955078 0.205371 0
0.891406 0.204492 0
1.0125 0.1375 0
0.949219 0.136914 0
0.885937 0.136328 0
0.896875 0.272656 0
0.832812 0.271484 0
0.76875 0.270313 0
0.891406 0.204492 0
0.827734 0.203613 0
0.764062 0.202734 0
0.885937 0.136328 0
0.822656 0.135742 0
0.759375 0.135156 0
1.0125 0.1375 0
0.949219 0.136914 0
0.885937 0.136328 0
1.00625 0.06875 0
0.943359 0.068457 0
0.880469 0.0681641 0
1 0 0
0.9375 0 0
0.875 0 0
0.885937 0.136328 0
0.822656 0.135742 0
0.759375 0.135156 0
0.880469 0.0681641 0
0.817578 0.0678711 0
0.754687 0.0675781 0
0.875 0 0
0.8125 0 0
0.75 0 0
0.76875 0.270313 0
0.704687 0.269141 0
0.640625 0.267969 0
0.764062 0.202734 0
0.700391 0.201855 0
0.636719 0.200977 0
0.759375 0.135156 0
0.696094 0.13457 0
0.632812 0.133984 0
0.640625 0.267969 0
0.576562 0.266797 0
0.5125 0.265625 0
0.636719 0.200977 0
0.573047 0.200098 0
0.509375 0.199219 0
0.632812 0.133984 0
0.569531 0.133398 0
0.50625 0.132812 0
0.759375 0.135156 0
0.696094 0.13457 0
0.632812 0.133984 0
0.754687 0.0675781 0
0.691797 0.0672852 0
0.628906 0.0669922 0
0.75 0 0
0.6875 0 0
0.625 0 0
0.632812 0.133984 0
0.569531 0.133398 0
0.50625 0.132812 0
0.628906 0.0669922 0
0.566016 0.0666992 0
0.503125 0.0664062 0
0.625 0 0
0.5625 0 0
0.5 0 0
0.525 0.53125 0
0.459375 0.528906 0
0.39375 0.526563 0
0.521875 0.464844 0
0.456641 0.462793 0
0.391406 0.460742 0
0.51875 0.398438 0
0.453906 0.39668 0
0.389063 0.394922 0
0.39375 0.526563 0
0.328125 0.524219 0
0.2625 0.521875 0
0.391406 0.460742 0
0.326172 0.458691 0
0.260938 0.456641 0
0.389063 0.394922 0
0.324219 0.393164 0
0.259375 0.391406 0
0.51875 0.398438 0
0.453906 0.39668 0
0.389063 0.394922 0
0.515625 0.332031 0
0.451172 0.330566 0
0.386719 0.329102 0
0.5125 0.265625 0
0.448437 0.264453 0
0.384375 0.263281 0
0.389063 0.394922 0
0.324219 0.393164 0
0.259375 0.391406 0
0.386719 0.329102 0
0.322266 0.327637 0
0.257812 0.326172 0
0.384375 0.263281 0
0.320312 0.262109 0
0.25625 0.260937 0
0.2625 0.521875 0
0.196875 0.519531 0
0.13125 0.517187 0
0.260938 0.456641 0
0.195703 0.45459 0
0.130469 0.452539 0
0.259375 0.391406 0
0.194531 0.389648 0
0.129688 0.387891 0
0.13125 0.517187 0
0.065625 0.514844 0
0 0.5125 0
0.130469 0.452539 0
0.0652344 0.450488 0
0 0.448437 0
0.129688 0.387891 0
0.0648438 0.386133 0
0 0.384375 0
0.259375 0.391406 0
0.194531 0.389648 0
0.129688 0.387891 0
0.257812 0.326172 0
0.193359 0.324707 0
0.128906 0.323242 0
0.25625 0.260937 0
0.192187 0.259766 0
0.128125 0.258594 0
0.129688 0.387891 0
0.0648438 0.386133 0
0 0.384375 0
0.128906 0.323242 0
0.0644531 0.321777 0
0 0.320312 0
0.128125 0.258594 0
0.0640625 0.257422 0
0 0.25625 0
0.5125 0.265625 0
0.448437 0.264453 0
0.384375 0.263281 0
0.509375 0.199219 0
0.445703 0.19834 0
0.382031 0.197461 0
0.50625 0.132812 0
0.442969 0.132227 0
0.379688 0.131641 0
0.384375 0.263281 0
0.320312 0.262109 0
0.25625 0.260937 0
0.382031 0.197461 0
0.318359 0.196582 0
0.254687 0.195703 0
[...]
POINT_DATA 34560
VECTORS v double
1.20147 -0.238611 0
1.19199 -0.212337 0
1.184 -0.189178 0
1.17129 -0.226714 0
1.15953 -0.203391 0
1.14976 -0.18192 0
1.13642 -0.213808 0
1.12309 -0.192563 0
1.11138 -0.17283 0
1.184 -0.189178 0
1.17717 -0.167636 0
1.17156 -0.148422 0
1.14976 -0.18192 0
1.14079 -0.162054 0
1.13352 -0.143998 0
1.11138 -0.17283 0
1.10079 -0.154516 0
1.09171 -0.13767 0
1.13642 -0.213808 0
1.12309 -0.192563 0
1.11138 -0.17283 0
1.09541 -0.198168 0
1.08054 -0.179238 0
1.06739 -0.161534 0
1.04823 -0.182612 0
1.03244 -0.165749 0
1.01822 -0.149841 0
1.11138 -0.17283 0
1.10079 -0.154516 0
1.09171 -0.13767 0
1.06739 -0.161534 0
1.05539 -0.144962 0
1.04494 -0.129624 0
1.01822 -0.149841 0
1.00525 -0.134857 0
0.993754 -0.120888 0
1.17156 -0.148422 0
1.16632 -0.130786 0
1.16199 -0.114905 0
1.13352 -0.143998 0
1.12644 -0.127339 0
1.12068 -0.112208 0
1.09171 -0.13767 0
1.08315 -0.122096 0
1.07587 -0.107809 0
1.16199 -0.114905 0
1.1576 -0.100321 0
1.15384 -0.0870119 0
1.12068 -0.112208 0
1.11481 -0.0981987 0
1.10989 -0.085352 0
1.07587 -0.107809 0
1.06875 -0.0945482 0
1.06263 -0.0822995 0
1.09171 -0.13767 0
1.08315 -0.122096 0
1.07587 -0.107809 0
1.04494 -0.129624 0
1.03516 -0.115321 0
1.02667 -0.102125 0
0.993754 -0.120888 0
0.98304 -0.107799 0
0.973609 -0.0956528 0
1.07587 -0.107809 0
1.06875 -0.0945482 0
1.06263 -0.0822995 0
1.02667 -0.102125 0
1.01855 -0.0897943 0
1.01146 -0.078341 0
0.973609 -0.0956528 0
0.964677 -0.0842559 0
0.95681 -0.0736211 0
1.04823 -0.182612 0
1.03244 -0.165749 0
1.01822 -0.149841 0
0.995681 -0.166061 0
0.979191 -0.151178 0
0.964213 -0.13705 0
0.938243 -0.149537 0
0.921292 -0.136444 0
0.905748 -0.123947 0
1.01822 -0.149841 0
1.00525 -0.134857 0
0.993754 -0.120888 0
0.964213 -0.13705 0
0.950478 -0.123657 0
0.938162 -0.111109 0
0.905748 -0.123947 0
0.891452 -0.112054 0
0.878512 -0.100859 0
0.938243 -0.149537 0
0.921292 -0.136444 0
0.905748 -0.123947 0
0.875763 -0.132046 0
0.858496 -0.12072 0
0.842593 -0.109875 0
0.808473 -0.114927 0
0.791111 -0.105223 0
0.775039 -0.0958982 0
0.905748 -0.123947 0
0.891452 -0.112054 0
0.878512 -0.100859 0
0.842593 -0.109875 0
0.827917 -0.0995126 0
0.814559 -0.0897244 0
0.775039 -0.0958982 0
0.760177 -0.0869625 0
0.746581 -0.0784984 0
0.993754 -0.120888 0
0.98304 -0.107799 0
0.973609 -0.0956528 0
0.938162 -0.111109 0
0.926719 -0.0992947 0
0.916533 -0.0882822 0
0.878512 -0.100859 0
0.866513 -0.090283 0
0.855741 -0.080388 0
0.973609 -0.0956528 0
0.964677 -0.0842559 0
0.95681 -0.0736211 0
0.916533 -0.0882822 0
0.906971 -0.0779102 0
0.898481 -0.0681958 0
0.855741 -0.080388 0
0.845695 -0.0710453 0
0.836718 -0.0622694 0
0.878512 -0.100859 0
0.866513 -0.090283 0
0.855741 -0.080388 0
0.814559 -0.0897244 0
0.802181 -0.0804452 0
0.791007 -0.0717378 0
0.746581 -0.0784984 0
0.73399 -0.070459 0
0.722573 -0.0628995 0
0.855741 -0.080388 0
0.845695 -0.0710453 0
0.836718 -0.0622694 0
0.791007 -0.0717378 0
0.780631 -0.0634942 0
0.771323 -0.0557336 0
0.722573 -0.0628995 0
0.712007 -0.0557349 0
0.7025 -0.048981 0
1.15384 -0.0870119 0
1.1499 -0.0746308 0
1.1464 -0.0630914 0
1.10989 -0.085352 0
1.10482 -0.0733186 0
1.10045 -0.0620708 0
1.06263 -0.0822995 0
1.05659 -0.0707911 0
1.05134 -0.0599836 0
1.1464 -0.0630914 0
1.14263 -0.0521067 0
1.13914 -0.041573 0
1.10045 -0.0620708 0
1.09589 -0.0513123 0
1.09181 -0.0409761 0
1.05134 -0.0599836 0
1.04608 -0.0496184 0
1.04144 -0.0396297 0
1.06263 -0.0822995 0
1.05659 -0.0707911 0
1.05134 -0.0599836 0
1.01146 -0.078341 0
1.00465 -0.0675215 0
0.998689 -0.0573171 0
0.95681 -0.0736211 0
0.949365 -0.0635431 0
0.942814 -0.0540022 0
1.05134 -0.0599836 0
1.04608 -0.0496184 0
1.04144 -0.0396297 0
0.998689 -0.0573171 0
0.992902 -0.0474909 0
0.987799 -0.0379856 0
0.942814 -0.0540022 0
0.936587 -0.0447889 0
0.931109 -0.035851 0
1.13914 -0.041573 0
1.1355 -0.0312309 0
1.13206 -0.0209775 0
1.09181 -0.0409761 0
1.08769 -0.0308101 0
1.08395 -0.0207242 0
1.04144 -0.0396297 0
1.0369 -0.0297861 0
1.03287 -0.0200138 0
1.13206 -0.0209775 0
1.12845 -0.0105734 0
1.125 0 0
1.08395 -0.0207242 0
1.08015 -0.0104812 0
1.07666 0 0
1.03287 -0.0200138 0
1.02891 -0.0100931 0
1.02539 0 0
1.04144 -0.0396297 0
1.0369 -0.0297861 0
1.03287 -0.0200138 0
0.987799 -0.0379856 0
0.982959 -0.0285894 0
0.978721 -0.019244 0
0.931109 -0.035851 0
0.926023 -0.0269974 0
0.921617 -0.0181736 0
1.03287 -0.0200138 0
1.02891 -0.0100931 0
1.02539 0 0
0.978721 -0.019244 0
0.974688 -0.00973689 0
0.971191 0 0
0.921617 -0.0181736 0
0.91753 -0.00918515 0
0.914062 0 0
0.95681 -0.0736211 0
0.949365 -0.0635431 0
0.942814 -0.0540022 0
0.898481 -0.0681958 0
0.890539 -0.0589593 0
0.883525 -0.0501869 0
0.836718 -0.0622694 0
0.828394 -0.0539089 0
0.821022 -0.0459491 0
0.942814 -0.0540022 0
0.936587 -0.0447889 0
0.931109 -0.035851 0
0.883525 -0.0501869 0
0.876964 -0.0416894 0
0.871207 -0.0334219 0
0.821022 -0.0459491 0
0.814212 -0.0382225 0
0.808249 -0.0306855 0
0.836718 -0.0622694 0
0.828394 -0.0539089 0
0.821022 -0.0459491 0
0.771323 -0.0557336 0
0.762746 -0.0483242 0
0.755138 -0.041256 0
0.7025 -0.048981 0
0.693784 -0.0425286 0
0.686042 -0.0363669 0
0.821022 -0.0459491 0
0.814212 -0.0382225 0
0.808249 -0.0306855 0
0.755138 -0.041256 0
0.748178 -0.034377 0
0.742101 -0.027649 0
0.686042 -0.0363669 0
0.679016 -0.0303627 0
0.672896 -0.0244771 0
0.931109 -0.035851 0
0.926023 -0.0269974 0
0.921617 -0.0181736 0
0.871207 -0.0334219 0
0.865954 -0.0252066 0
0.861451 -0.0169964 0
0.808249 -0.0306855 0
0.802888 -0.023176 0
0.798333 -0.01565 0
0.921617 -0.0181736 0
0.91753 -0.00918515 0
0.914062 0 0
0.861451 -0.0169964 0
0.857378 -0.00860944 0
0.854004 0 0
0.798333 -0.01565 0
0.794295 -0.00793899 0
0.791016 0 0
0.808249 -0.0306855 0
0.802888 -0.023176 0
0.798333 -0.01565 0
0.742101 -0.027649 0
0.736704 -0.0209205 0
0.732162 -0.014153 0
0.672896 -0.0244771 0
0.66752 -0.0185714 0
0.663036 -0.0126069 0
0.798333 -0.01565 0
0.794295 -0.00793899 0
0.791016 0 0
0.732162 -0.014153 0
0.72822 -0.00718953 0
0.725098 0 0
0.663036 -0.0126069 0
0.659213 -0.00643697 0
0.65625 0 0
0.808473 -0.114927 0
0.791111 -0.105223 0
0.775039 -0.0958982 0
0.736562 -0.0972454 0
0.719196 -0.0891085 0
0.703091 -0.0812796 0
0.659917 -0.0799869 0
0.642717 -0.073332 0
0.626732 -0.0669221 0
0.775039 -0.0958982 0
0.760177 -0.0869625 0
0.746581 -0.0784984 0
0.703091 -0.0812796 0
0.688166 -0.0737652 0
0.674479 -0.0666401 0
0.626732 -0.0669221 0
0.611912 -0.0607656 0
0.598297 -0.0549263 0
0.659917 -0.0799869 0
0.642717 -0.073332 0
0.626732 -0.0669221 0
0.578211 -0.0623801 0
0.561318 -0.0571759 0
0.545633 -0.0521726 0
0.490102 -0.0454998 0
0.473903 -0.0416939 0
0.458876 -0.0380432 0
0.626732 -0.0669221 0
0.611912 -0.0607656 0
0.598297 -0.0549263 0
0.545633 -0.0521726 0
0.531092 -0.0473707 0
0.51774 -0.0428237 0
0.458876 -0.0380432 0
0.444967 -0.0345439 0
0.432212 -0.0312399 0
0.746581 -0.0784984 0
0.73399 -0.070459 0
0.722573 -0.0628995 0
0.674479 -0.0666401 0
0.661811 -0.0598647 0
0.650298 -0.0534893 0
0.598297 -0.0549263 0
0.585713 -0.0493727 0
0.574261 -0.0441481 0
0.722573 -0.0628995 0
0.712007 -0.0557349 0
0.7025 -0.048981 0
0.650298 -0.0534893 0
0.639676 -0.0474421 0
0.630104 -0.0417394 0
0.574261 -0.0441481 0
0.563727 -0.0391946 0
0.55423 -0.0345252 0
0.598297 -0.0549263 0
0.585713 -0.0493727 0
0.574261 -0.0441481 0
0.51774 -0.0428237 0
0.505419 -0.038503 0
0.494213 -0.0344454 0
0.432212 -0.0312399 0
0.420468 -0.0281051 0
0.409798 -0.0251694 0
0.574261 -0.0441481 0
0.563727 -0.0391946 0
0.55423 -0.0345252 0
0.494213 -0.0344454 0
0.483935 -0.0306018 0
0.47468 -0.0269836 0
0.409798 -0.0251694 0
0.400044 -0.0223925 0
0.391272 -0.0197845 0
0.490102 -0.0454998 0
0.473903 -0.0416939 0
0.458876 -0.0380432 0
0.393338 -0.0291276 0
0.378478 -0.0266569 0
0.364748 -0.0243013 0
0.283604 -0.0148824 0
0.271399 -0.013626 0
0.260153 -0.0124368 0
0.458876 -0.0380432 0
0.444967 -0.0345439 0
0.432212 -0.0312399 0
0.364748 -0.0243013 0
0.352064 -0.0220508 0
0.340466 -0.0199384 0
0.260153 -0.0124368 0
0.249787 -0.0112984 0
0.240331 -0.0102374 0
0.283604 -0.0148824 0
0.271399 -0.013626 0
0.260153 -0.0124368 0
0.155203 -0.00423002 0
0.147664 -0.0038588 0
0.140756 -0.0035182 0
0 0 0
0 0 0
0 0 0
0.260153 -0.0124368 0
0.249787 -0.0112984 0
0.240331 -0.0102374 0
0.140756 -0.0035182 0
0.134373 -0.00318858 0
0.128569 -0.00289146 0
0 0 0
0 0 0
0 0 0
0.432212 -0.0312399 0
0.420468 -0.0281051 0
0.409798 -0.0251694 0
0.340466 -0.0199384 0
0.329811 -0.0179399 0
0.320154 -0.0160778 0
0.240331 -0.0102374 0
0.23166 -0.00923172 0
0.223808 -0.00830037 0
0.409798 -0.0251694 0
0.400044 -0.0223925 0
0.391272 -0.0197845 0
0.320154 -0.0160778 0
0.311344 -0.0143191 0
0.303436 -0.0126737 0
0.223808 -0.00830037 0
0.216653 -0.0074191 0
0.21023 -0.00659926 0
0.240331 -0.0102374 0
0.23166 -0.00923172 0
0.223808 -0.00830037 0
0.128569 -0.00289146 0
0.12323 -0.00260453 0
0.118403 -0.00234682 0
0 0 0
0 0 0
0 0 0
0.223808 -0.00830037 0
0.216653 -0.0074191 0
0.21023 -0.00659926 0
0.118403 -0.00234682 0
0.113982 -0.00209712 0
0.110015 -0.0018716 0
0 0 0
0 0 0
0 0 0
0.7025 -0.048981 0
0.693784 -0.0425286 0
0.686042 -0.0363669 0
0.630104 -0.0417394 0
0.621365 -0.0362878 0
0.613603 -0.0310802 0
0.55423 -0.0345252 0
0.54559 -0.0300639 0
0.537921 -0.0258046 0
0.686042 -0.0363669 0
0.679016 -0.0303627 0
0.672896 -0.0244771 0
0.613603 -0.0310802 0
0.606604 -0.0259979 0
0.600526 -0.0210056 0
0.537921 -0.0258046 0
0.531043 -0.021647 0
0.525086 -0.0175554 0
0.55423 -0.0345252 0
0.54559 -0.0300639 0
0.537921 -0.0258046 0
0.47468 -0.0269836 0
0.466289 -0.0235269 0
0.458851 -0.0202301 0
0.391272 -0.0197845 0
0.383342 -0.0172949 0
0.376323 -0.0149232 0
0.537921 -0.0258046 0
0.531043 -0.021647 0
0.525086 -0.0175554 0
0.458851 -0.0202301 0
0.452211 -0.0170088 0
0.446481 -0.0138323 0
0.376323 -0.0149232 0
0.370082 -0.0126037 0
0.364712 -0.010311 0
0.672896 -0.0244771 0
0.66752 -0.0185714 0
0.663036 -0.0126069 0
0.600526 -0.0210056 0
0.595237 -0.0159744 0
0.590869 -0.010869 0
0.525086 -0.0175554 0
0.519944 -0.0134147 0
0.515739 -0.00918818 0
0.663036 -0.0126069 0
0.659213 -0.00643697 0
0.65625 0 0
0.590869 -0.010869 0
0.587218 -0.00555086 0
0.584473 0 0
0.515739 -0.00918818 0
0.512288 -0.00474729 0
0.509766 0 0
0.525086 -0.0175554 0
0.519944 -0.0134147 0
0.515739 -0.00918818 0
0.446481 -0.0138323 0
0.441564 -0.0105989 0
0.437579 -0.00728094 0
0.364712 -0.010311 0
0.360123 -0.00796316 0
0.356434 -0.00552955 0
0.515739 -0.00918818 0
0.512288 -0.00474729 0
0.509766 0 0
0.437579 -0.00728094 0
0.434376 -0.00375715 0
0.432129 0 0
0.356434 -0.00552955 0
0.353524 -0.00291597 0
0.351562 0 0
0.391272 -0.0197845 0
0.383342 -0.0172949 0
0.376323 -0.0149232 0
0.303436 -0.0126737 0
0.296298 -0.0111018 0
0.28999 -0.00960588 0
0.21023 -0.00659926 0
0.204431 -0.00581379 0
0.199303 -0.00506753 0
0.376323 -0.0149232 0
0.370082 -0.0126037 0
0.364712 -0.010311 0
0.28999 -0.00960588 0
0.284392 -0.00813698 0
0.27959 -0.00667974 0
0.199303 -0.00506753 0
0.194748 -0.00433036 0
0.190843 -0.00359932 0
0.21023 -0.00659926 0
0.204431 -0.00581379 0
0.199303 -0.00506753 0
0.110015 -0.0018716 0
0.106408 -0.00165078 0
0.103222 -0.00144456 0
0 0 0
0 0 0
0 0 0
0.199303 -0.00506753 0
0.194748 -0.00433036 0
0.190843 -0.00359932 0
0.103222 -0.00144456 0
0.100364 -0.00123194 0
0.0979148 -0.00102512 0
0 0 0
0 0 0
0 0 0
0.364712 -0.010311 0
0.360123 -0.00796316 0
0.356434 -0.00552955 0
0.27959 -0.00667974 0
0.275496 -0.00516867 0
0.272233 -0.00358749 0
0.190843 -0.00359932 0
0.187518 -0.00283545 0
0.184891 -0.00201247 0
0.356434 -0.00552955 0
0.353524 -0.00291597 0
0.351562 0 0
0.272233 -0.00358749 0
0.269696 -0.00185743 0
0.268066 0 0
0.184891 -0.00201247 0
0.182877 -0.00109971 0
0.181641 0 0
0.190843 -0.00359932 0
0.187518 -0.00283545 0
0.184891 -0.00201247 0
0.0979148 -0.00102512 0
0.0958065 -0.000807766 0
0.0941965 -0.000563158 0
0 0 0
0 0 0
0 0 0
0.184891 -0.00201247 0
0.182877 -0.00109971 0
0.181641 0 0
0.0941965 -0.000563158 0
0.092945 -0.000252402 0
0.0922852 0 0
0 0 0
0 0 0
0 0 0
1.60643 -0.440615 0
1.57145 -0.453179 0
1.53377 -0.461228 0
1.55329 -0.397074 0
1.52088 -0.408148 0
1.48638 -0.41535 0
1.49566 -0.357831 0
1.46664 -0.367767 0
1.43565 -0.374459 0
1.53377 -0.461228 0
1.49643 -0.46386 0
1.45748 -0.461707 0
1.48638 -0.41535 0
1.45215 -0.41844 0
1.41668 -0.4174 0
1.43565 -0.374459 0
1.40497 -0.377799 0
1.37325 -0.377613 0
1.49566 -0.357831 0
1.46664 -0.367767 0
1.43565 -0.374459 0
1.44015 -0.323785 0
1.41345 -0.331536 0
1.38517 -0.336724 0
1.38092 -0.290053 0
1.3553 -0.296541 0
1.32843 -0.300929 0
1.43565 -0.374459 0
1.40497 -0.377799 0
1.37325 -0.377613 0
1.38517 -0.336724 0
1.35694 -0.339153 0
1.32779 -0.338776 0
1.32843 -0.300929 0
1.30166 -0.303089 0
1.2742 -0.302936 0
1.45748 -0.461707 0
1.42181 -0.454766 0
1.38609 -0.443301 0
1.41668 -0.4174 0
1.38389 -0.412337 0
1.35106 -0.403773 0
1.37325 -0.377613 0
1.34356 -0.374102 0
1.31382 -0.36743 0
1.38609 -0.443301 0
1.35474 -0.428716 0
1.32451 -0.410955 0
1.35106 -0.403773 0
1.32185 -0.392118 0
1.29365 -0.377779 0
1.31382 -0.36743 0
1.28689 -0.358007 0
1.26073 -0.34609 0
1.37325 -0.377613 0
1.34356 -0.374102 0
1.31382 -0.36743 0
1.32779 -0.338776 0
1.3001 -0.335697 0
1.27225 -0.330028 0
1.2742 -0.302936 0
1.24795 -0.300533 0
1.2217 -0.295981 0
1.31382 -0.36743 0
1.28689 -0.358007 0
1.26073 -0.34609 0
1.27225 -0.330028 0
1.2466 -0.322115 0
1.22156 -0.312132 0
1.2217 -0.295981 0
1.19729 -0.289501 0
1.17349 -0.281233 0
1.38092 -0.290053 0
1.3553 -0.296541 0
1.32843 -0.300929 0
1.318 -0.25928 0
1.29351 -0.264829 0
1.26801 -0.268588 0
1.25394 -0.229275 0
1.23031 -0.234056 0
1.20582 -0.237337 0
1.32843 -0.300929 0
1.30166 -0.303089 0
1.2742 -0.302936 0
1.26801 -0.268588 0
1.24268 -0.270436 0
1.2168 -0.27033 0
1.20582 -0.237337 0
1.18149 -0.239011 0
1.1567 -0.239032 0
1.25394 -0.229275 0
1.23031 -0.234056 0
1.20582 -0.237337 0
1.18787 -0.200367 0
1.16474 -0.204333 0
1.14088 -0.207046 0
1.11863 -0.172076 0
1.09573 -0.175464 0
1.07223 -0.177817 0
1.20582 -0.237337 0
1.18149 -0.239011 0
1.1567 -0.239032 0
1.14088 -0.207046 0
1.11719 -0.208428 0
1.09313 -0.208434 0
1.07223 -0.177817 0
1.04894 -0.179072 0
1.02536 -0.17918 0
1.2742 -0.302936 0
1.24795 -0.300533 0
1.2217 -0.295981 0
1.2168 -0.27033 0
1.19197 -0.26831 0
1.16715 -0.264447 0
1.1567 -0.239032 0
1.13279 -0.237424 0
1.10892 -0.234241 0
1.2217 -0.295981 0
1.19729 -0.289501 0
1.17349 -0.281233 0
1.16715 -0.264447 0
1.14387 -0.258921 0
1.12113 -0.251841 0
1.10892 -0.234241 0
1.08635 -0.229623 0
1.06428 -0.223659 0
1.1567 -0.239032 0
1.13279 -0.237424 0
1.10892 -0.234241 0
1.09313 -0.208434 0
1.06983 -0.207091 0
1.04661 -0.204426 0
1.02536 -0.17918 0
1.00249 -0.178159 0
0.979743 -0.176026 0
1.10892 -0.234241 0
1.08635 -0.229623 0
1.06428 -0.223659 0
1.04661 -0.204426 0
1.02451 -0.200558 0
1.00291 -0.19554 0
0.979743 -0.176026 0
0.957997 -0.172869 0
0.93674 -0.16873 0
1.32451 -0.410955 0
1.29923 -0.391571 0
1.27594 -0.370006 0
1.29365 -0.377779 0
1.26968 -0.361397 0
1.24744 -0.343471 0
1.26073 -0.34609 0
1.23786 -0.332323 0
1.21645 -0.316986 0
1.27594 -0.370006 0
1.25672 -0.348051 0
1.23983 -0.32538 0
1.24744 -0.343471 0
1.22871 -0.324651 0
1.21207 -0.305028 0
1.21645 -0.316986 0
1.19792 -0.300597 0
1.18115 -0.283371 0
1.26073 -0.34609 0
1.23786 -0.332323 0
1.21645 -0.316986 0
1.22156 -0.312132 0
1.19924 -0.300536 0
1.17815 -0.28752 0
1.17349 -0.281233 0
1.15201 -0.271502 0
1.13167 -0.260507 0
1.21645 -0.316986 0
1.19792 -0.300597 0
1.18115 -0.283371 0
1.17815 -0.28752 0
1.15959 -0.273562 0
1.14262 -0.258845 0
1.13167 -0.260507 0
1.11351 -0.248602 0
1.09679 -0.235942 0
1.23983 -0.32538 0
1.22656 -0.302999 0
1.21593 -0.280575 0
1.21207 -0.305028 0
1.19863 -0.285138 0
1.18745 -0.265297 0
1.18115 -0.283371 0
1.16706 -0.26583 0
1.15494 -0.248179 0
1.21593 -0.280575 0
1.20765 -0.259087 0
1.20147 -0.238611 0
1.18745 -0.265297 0
1.17831 -0.245827 0
1.17129 -0.226714 0
1.15494 -0.248179 0
1.14474 -0.230752 0
1.13642 -0.213808 0
1.18115 -0.283371 0
1.16706 -0.26583 0
1.15494 -0.248179 0
1.14262 -0.258845 0
1.12811 -0.243763 0
1.11542 -0.228464 0
1.09679 -0.235942 0
1.08224 -0.222831 0
1.06933 -0.209438 0
1.15494 -0.248179 0
1.14474 -0.230752 0
1.13642 -0.213808 0
1.11542 -0.228464 0
1.10454 -0.21322 0
1.09541 -0.198168 0
1.06933 -0.209438 0
1.05799 -0.195978 0
1.04823 -0.182612 0
1.17349 -0.281233 0
1.15201 -0.271502 0
1.13167 -0.260507 0
1.12113 -0.251841 0
1.10033 -0.243485 0
1.08055 -0.234011 0
1.06428 -0.223659 0
1.04387 -0.216569 0
1.02439 -0.208488 0
1.13167 -0.260507 0
1.11351 -0.248602 0
1.09679 -0.235942 0
1.08055 -0.234011 0
1.0626 -0.223712 0
1.04594 -0.212707 0
1.02439 -0.208488 0
1.00654 -0.199652 0
0.989869 -0.190176 0
1.06428 -0.223659 0
1.04387 -0.216569 0
1.02439 -0.208488 0
1.00291 -0.19554 0
0.982758 -0.189558 0
0.963476 -0.182711 0
0.93674 -0.16873 0
0.916766 -0.163752 0
0.897614 -0.158022 0
1.02439 -0.208488 0
1.00654 -0.199652 0
0.989869 -0.190176 0
0.963476 -0.182711 0
0.945647 -0.175196 0
0.92892 -0.167102 0
0.897614 -0.158022 0
0.879763 -0.151695 0
0.862948 -0.14485 0
1.09679 -0.235942 0
1.08224 -0.222831 0
1.06933 -0.209438 0
1.04594 -0.212707 0
1.03118 -0.20128 0
1.01789 -0.189586 0
0.989869 -0.190176 0
0.974911 -0.180291 0
0.96132 -0.170133 0
1.06933 -0.209438 0
1.05799 -0.195978 0
1.04823 -0.182612 0
1.01789 -0.189586 0
1.00606 -0.177819 0
0.995681 -0.166061 0
0.96132 -0.170133 0
0.949098 -0.15985 0
0.938243 -0.149537 0
0.989869 -0.190176 0
0.974911 -0.180291 0
0.96132 -0.170133 0
0.92892 -0.167102 0
0.913729 -0.158622 0
0.899809 -0.149871 0
0.862948 -0.14485 0
0.847528 -0.137646 0
0.833304 -0.130189 0
0.96132 -0.170133 0
0.949098 -0.15985 0
0.938243 -0.149537 0
0.899809 -0.149871 0
0.887151 -0.140984 0
0.875763 -0.132046 0
0.833304 -0.130189 0
0.820279 -0.122592 0
0.808473 -0.114927 0
1.11863 -0.172076 0
1.09573 -0.175464 0
1.07223 -0.177817 0
1.04693 -0.144965 0
1.02414 -0.147797 0
1.00085 -0.149771 0
0.971807 -0.118005 0
0.949003 -0.120427 0
0.925752 -0.122145 0
1.07223 -0.177817 0
1.04894 -0.179072 0
1.02536 -0.17918 0
1.00085 -0.149771 0
0.977785 -0.15083 0
0.954512 -0.150933 0
0.925752 -0.122145 0
0.902749 -0.123116 0
0.879584 -0.123303 0
0.971807 -0.118005 0
0.949003 -0.120427 0
0.925752 -0.122145 0
0.890899 -0.091553 0
0.868193 -0.0935725 0
0.845078 -0.0950276 0
0.797748 -0.0657227 0
0.775665 -0.0673838 0
0.753135 -0.0686165 0
0.925752 -0.122145 0
0.902749 -0.123116 0
0.879584 -0.123303 0
0.845078 -0.0950276 0
0.822198 -0.0958856 0
0.799178 -0.0961149 0
0.753135 -0.0686165 0
0.730807 -0.0693985 0
0.708323 -0.0697007 0
1.02536 -0.17918 0
1.00249 -0.178159 0
0.979743 -0.176026 0
0.954512 -0.150933 0
0.931875 -0.150097 0
0.909382 -0.148332 0
0.879584 -0.123303 0
0.857012 -0.122719 0
0.834608 -0.121371 0
0.979743 -0.176026 0
0.957997 -0.172869 0
0.93674 -0.16873 0
0.909382 -0.148332 0
0.887794 -0.145714 0
0.866683 -0.142273 0
0.834608 -0.121371 0
0.81304 -0.119319 0
0.791955 -0.116584 0
0.879584 -0.123303 0
0.857012 -0.122719 0
0.834608 -0.121371 0
0.799178 -0.0961149 0
0.776703 -0.0957304 0
0.754402 -0.0947318 0
0.708323 -0.0697007 0
0.686321 -0.069537 0
0.664478 -0.0689031 0
0.834608 -0.121371 0
0.81304 -0.119319 0
0.791955 -0.116584 0
0.754402 -0.0947318 0
0.732874 -0.0931707 0
0.71182 -0.0910606 0
0.664478 -0.0689031 0
0.643337 -0.0678409 0
0.622653 -0.0663579 0
0.797748 -0.0657227 0
0.775665 -0.0673838 0
0.753135 -0.0686165 0
0.681499 -0.0415483 0
0.661284 -0.0427899 0
0.640543 -0.0437362 0
0.522947 -0.0200099 0
0.506815 -0.0207976 0
0.490055 -0.0214241 0
0.753135 -0.0686165 0
0.730807 -0.0693985 0
0.708323 -0.0697007 0
0.640543 -0.0437362 0
0.619894 -0.044371 0
0.599012 -0.0446719 0
0.490055 -0.0214241 0
0.473243 -0.0218869 0
0.456103 -0.0221639 0
0.522947 -0.0200099 0
0.506815 -0.0207976 0
0.490055 -0.0214241 0
0.300379 -0.00565199 0
0.291293 -0.00591649 0
0.281587 -0.00612584 0
0 0 0
0 0 0
0 0 0
0.490055 -0.0214241 0
0.473243 -0.0218869 0
0.456103 -0.0221639 0
0.281587 -0.00612584 0
0.271783 -0.00628673 0
0.261584 -0.00637904 0
0 0 0
0 0 0
0 0 0
0.708323 -0.0697007 0
0.686321 -0.069537 0
0.664478 -0.0689031 0
0.599012 -0.0446719 0
0.578501 -0.0446512 0
0.558079 -0.0443021 0
0.456103 -0.0221639 0
0.439164 -0.0222693 0