# vtk DataFile Version 3.0
#This file was generated by the deal.II library on 2025/1/8 at 7:46:42
ASCII
DATASET UNSTRUCTURED_GRID

POINTS 34560 double
1.1 1.1 0
1.03125 1.09531 0
0.9625 1.09063 0
1.09375 1.03125 0
1.02539 1.02686 0
0.957031 1.02246 0
1.0875 0.9625 0
1.01953 0.958398 0
0.951563 0.954297 0
0.9625 1.09063 0
0.89375 1.08594 0
0.825 1.08125 0
0.957031 1.02246 0
0.888672 1.01807 0
0.820312 1.01367 0
0.951563 0.954297 0
0.883594 0.950195 0
0.815625 0.946094 0
1.0875 0.9625 0
1.01953 0.958398 0
0.951563 0.954297 0
1.08125 0.89375 0
1.01367 0.889941 0
0.946094 0.886133 0
1.075 0.825 0
1.00781 0.821484 0
0.940625 0.817969 0
0.951563 0.954297 0
0.883594 0.950195 0
0.815625 0.946094 0
0.946094 0.886133 0
0.878516 0.882324 0
0.810938 0.878516 0
0.940625 0.817969 0
0.873438 0.814453 0
0.80625 0.810937 0
0.825 1.08125 0
0.75625 1.07656 0
0.6875 1.07187 0
0.820312 1.01367 0
0.751953 1.00928 0
0.683594 1.00488 0
0.815625 0.946094 0
0.747656 0.941992 0
0.679688 0.937891 0
0.6875 1.07187 0
0.61875 1.06719 0
0.55 1.0625 0
0.683594 1.00488 0
0.615234 1.00049 0
0.546875 0.996094 0
0.679688 0.937891 0
0.611719 0.933789 0
0.54375 0.929688 0
0.815625 0.946094 0
0.747656 0.941992 0
0.679688 0.937891 0
0.810938 0.878516 0
0.743359 0.874707 0
0.675781 0.870898 0
0.80625 0.810937 0
0.739063 0.807422 0
0.671875 0.803906 0
0.679688 0.937891 0
0.611719 0.933789 0
0.54375 0.929688 0
0.675781 0.870898 0
0.608203 0.86709 0
0.540625 0.863281 0
0.671875 0.803906 0
0.604688 0.800391 0
0.5375 0.796875 0
1.075 0.825 0
1.00781 0.821484 0
0.940625 0.817969 0
1.06875 0.75625 0
1.00195 0.753027 0
0.935156 0.749805 0
1.0625 0.6875 0
0.996094 0.68457 0
0.929688 0.681641 0
0.940625 0.817969 0
0.873438 0.814453 0
0.80625 0.810937 0
0.935156 0.749805 0
0.868359 0.746582 0
0.801563 0.743359 0
0.929688 0.681641 0
0.863281 0.678711 0
0.796875 0.675781 0
1.0625 0.6875 0
0.996094 0.68457 0
0.929688 0.681641 0
1.05625 0.61875 0
0.990234 0.616113 0
0.924219 0.613477 0
1.05 0.55 0
0.984375 0.547656 0
0.91875 0.545313 0
0.929688 0.681641 0
0.863281 0.678711 0
0.796875 0.675781 0
0.924219 0.613477 0
0.858203 0.61084 0
0.792188 0.608203 0
0.91875 0.545313 0
0.853125 0.542969 0
0.7875 0.540625 0
0.80625 0.810937 0
0.739063 0.807422 0
0.671875 0.803906 0
0.801563 0.743359 0
0.734766 0.740137 0
0.667969 0.736914 0
0.796875 0.675781 0
0.730469 0.672852 0
0.664062 0.669922 0
0.671875 0.803906 0
0.604688 0.800391 0
0.5375 0.796875 0
0.667969 0.736914 0
0.601172 0.733691 0
0.534375 0.730469 0
0.664062 0.669922 0
0.597656 0.666992 0
0.53125 0.664062 0
0.796875 0.675781 0
0.730469 0.672852 0
0.664062 0.669922 0
0.792188 0.608203 0
0.726172 0.605566 0
0.660156 0.60293 0
0.7875 0.540625 0
0.721875 0.538281 0
0.65625 0.535937 0
0.664062 0.669922 0
0.597656 0.666992 0
0.53125 0.664062 0
0.660156 0.60293 0
0.594141 0.600293 0
0.528125 0.597656 0
0.65625 0.535937 0
0.590625 0.533594 0
0.525 0.53125 0
0.55 1.0625 0
0.48125 1.05781 0
0.4125 1.05313 0
0.546875 0.996094 0
0.478516 0.991699 0
0.410156 0.987305 0
0.54375 0.929688 0
0.475781 0.925586 0
0.407813 0.921484 0
0.4125 1.05313 0
0.34375 1.04844 0
0.275 1.04375 0
0.410156 0.987305 0
0.341797 0.98291 0
0.273438 0.978516 0
0.407813 0.921484 0
0.339844 0.917383 0
0.271875 0.913281 0
0.54375 0.929688 0
0.475781 0.925586 0
0.407813 0.921484 0
0.540625 0.863281 0
0.473047 0.859473 0
0.405469 0.855664 0
0.5375 0.796875 0
0.470313 0.793359 0
0.403125 0.789844 0
0.407813 0.921484 0
0.339844 0.917383 0
0.271875 0.913281 0
0.405469 0.855664 0
0.337891 0.851855 0
0.270313 0.848047 0
0.403125 0.789844 0
0.335938 0.786328 0
0.26875 0.782813 0
0.275 1.04375 0
0.20625 1.03906 0
0.1375 1.03437 0
0.273438 0.978516 0
0.205078 0.974121 0
0.136719 0.969727 0
0.271875 0.913281 0
0.203906 0.90918 0
0.135938 0.905078 0
0.1375 1.03437 0
0.06875 1.02969 0
0 1.025 0
0.136719 0.969727 0
0.0683594 0.965332 0
0 0.960937 0
0.135938 0.905078 0
0.0679688 0.900977 0
0 0.896875 0
0.271875 0.913281 0
0.203906 0.90918 0
0.135938 0.905078 0
0.270313 0.848047 0
0.202734 0.844238 0
0.135156 0.84043 0
0.26875 0.782813 0
0.201563 0.779297 0
0.134375 0.775781 0
0.135938 0.905078 0
0.0679688 0.900977 0
0 0.896875 0
0.135156 0.84043 0
0.0675781 0.836621 0
0 0.832812 0
0.134375 0.775781 0
0.0671875 0.772266 0
0 0.76875 0
0.5375 0.796875 0
0.470313 0.793359 0
0.403125 0.789844 0
0.534375 0.730469 0
0.467578 0.727246 0
0.400781 0.724023 0
0.53125 0.664062 0
0.464844 0.661133 0
0.398438 0.658203 0
0.403125 0.789844 0
0.335938 0.786328 0
0.26875 0.782813 0
0.400781 0.724023 0
0.333984 0.720801 0
0.267188 0.717578 0
0.398438 0.658203 0
0.332031 0.655273 0
0.265625 0.652344 0
0.53125 0.664062 0
0.464844 0.661133 0
0.398438 0.658203 0
0.528125 0.597656 0
0.462109 0.59502 0
0.396094 0.592383 0
0.525 0.53125 0
0.459375 0.528906 0
0.39375 0.526563 0
0.398438 0.658203 0
0.332031 0.655273 0
0.265625 0.652344 0
0.396094 0.592383 0
0.330078 0.589746 0
0.264062 0.587109 0
0.39375 0.526563 0
0.328125 0.524219 0
0.2625 0.521875 0
0.26875 0.782813 0
0.201563 0.779297 0
0.134375 0.775781 0
0.267188 0.717578 0
0.200391 0.714355 0
0.133594 0.711133 0
0.265625 0.652344 0
0.199219 0.649414 0
0.132812 0.646484 0
0.134375 0.775781 0
0.0671875 0.772266 0
0 0.76875 0
0.133594 0.711133 0
0.0667969 0.70791 0
0 0.704687 0
0.132812 0.646484 0
0.0664062 0.643555 0
0 0.640625 0
0.265625 0.652344 0
0.199219 0.649414 0
0.132812 0.646484 0
0.264062 0.587109 0
0.198047 0.584473 0
0.132031 0.581836 0
0.2625 0.521875 0
0.196875 0.519531 0
0.13125 0.517187 0
0.132812 0.646484 0
0.0664062 0.643555 0
0 0.640625 0
0.132031 0.581836 0
0.0660156 0.579199 0
0 0.576562 0
0.13125 0.517187 0
0.065625 0.514844 0
0 0.5125 0
1.05 0.55 0
0.984375 0.547656 0
0.91875 0.545313 0
1.04375 0.48125 0
0.978516 0.479199 0
0.913281 0.477148 0
1.0375 0.4125 0
0.972656 0.410742 0
0.907813 0.408984 0
0.91875 0.545313 0
0.853125 0.542969 0
0.7875 0.540625 0
0.913281 0.477148 0
0.848047 0.475098 0
0.782813 0.473047 0
0.907813 0.408984 0
0.842969 0.407227 0
0.778125 0.405469 0
1.0375 0.4125 0
0.972656 0.410742 0
0.907813 0.408984 0
1.03125 0.34375 0
0.966797 0.342285 0
0.902344 0.34082 0
1.025 0.275 0
0.960937 0.273828 0
0.896875 0.272656 0
0.907813 0.408984 0
0.842969 0.407227 0
0.778125 0.405469 0
0.902344 0.34082 0
0.837891 0.339355 0
0.773438 0.337891 0
0.896875 0.272656 0
0.832812 0.271484 0
0.76875 0.270313 0
0.7875 0.540625 0
0.721875 0.538281 0
0.65625 0.535937 0
0.782813 0.473047 0
0.717578 0.470996 0
0.652344 0.468945 0
0.778125 0.405469 0
0.713281 0.403711 0
0.648438 0.401953 0
0.65625 0.535937 0
0.590625 0.533594 0
0.525 0.53125 0
0.652344 0.468945 0
0.587109 0.466895 0
0.521875 0.464844 0
0.648438 0.401953 0
0.583594 0.400195 0
0.51875 0.398438 0
0.778125 0.405469 0
0.713281 0.403711 0
0.648438 0.401953 0
0.773438 0.337891 0
0.708984 0.336426 0
0.644531 0.334961 0
0.76875 0.270313 0
0.704687 0.269141 0
0.640625 0.267969 0
0.648438 0.401953 0
0.583594 0.400195 0
0.51875 0.398438 0
0.644531 0.334961 0
0.580078 0.333496 0
0.515625 0.332031 0
0.640625 0.267969 0
0.576562 0.266797 0
0.5125 0.265625 0
1.025 0.275 0
0.960937 0.273828 0
0.896875 0.272656 0
1.01875 0.20625 0
0.955078 0.205371 0
0.891406 0.204492 0
1.0125 0.1375 0
0.949219 0.136914 0
0.885937 0.136328 0
0.896875 0.272656 0
0.832812 0.271484 0
0.76875 0.270313 0
0.891406 0.204492 0
0.827734 0.203613 0
0.764062 0.202734 0
0.885937 0.136328 0
0.822656 0.135742 0
0.759375 0.135156 0
1.0125 0.1375 0
0.949219 0.136914 0
0.885937 0.136328 0
1.00625 0.06875 0
0.943359 0.068457 0
0.880469 0.0681641 0
1 0 0
0.9375 0 0
0.875 0 0
0.885937 0.136328 0
0.822656 0.135742 0
0.759375 0.135156 0
0.880469 0.0681641 0
0.817578 0.0678711 0
0.754687 0.0675781 0
0.875 0 0
0.8125 0 0
0.75 0 0
0.76875 0.270313 0
0.704687 0.269141 0
0.640625 0.267969 0
0.764062 0.202734 0
0.700391 0.201855 0
0.636719 0.200977 0
0.759375 0.135156 0
0.696094 0.13457 0
0.632812 0.133984 0
0.640625 0.267969 0
0.576562 0.266797 0
0.5125 0.265625 0
0.636719 0.200977 0
0.573047 0.200098 0
0.509375 0.199219 0
0.632812 0.133984 0
0.569531 0.133398 0
0.50625 0.132812 0
0.759375 0.135156 0
0.696094 0.13457 0
0.632812 0.133984 0
0.754687 0.0675781 0
0.691797 0.0672852 0
0.628906 0.0669922 0
0.75 0 0
0.6875 0 0
0.625 0 0
0.632812 0.133984 0
0.569531 0.133398 0
0.50625 0.132812 0
0.628906 0.0669922 0
0.566016 0.0666992 0
0.503125 0.0664062 0
0.625 0 0
0.5625 0 0
0.5 0 0
0.525 0.53125 0
0.459375 0.528906 0
0.39375 0.526563 0
0.521875 0.464844 0
0.456641 0.462793 0
0.391406 0.460742 0
0.51875 0.398438 0
0.453906 0.39668 0
0.389063 0.394922 0
0.39375 0.526563 0
0.328125 0.524219 0
0.2625 0.521875 0
0.391406 0.460742 0
0.326172 0.458691 0
0.260938 0.456641 0
0.389063 0.394922 0
0.324219 0.393164 0
0.259375 0.391406 0
0.51875 0.398438 0
0.453906 0.39668 0
0.389063 0.394922 0
0.515625 0.332031 0
0.451172 0.330566 0
0.386719 0.329102 0
0.5125 0.265625 0
0.448437 0.264453 0
0.384375 0.263281 0
0.389063 0.394922 0
0.324219 0.393164 0
0.259375 0.391406 0
0.386719 0.329102 0
0.322266 0.327637 0
0.257812 0.326172 0
0.384375 0.263281 0
0.320312 0.262109 0
0.25625 0.260937 0
0.2625 0.521875 0
0.196875 0.519531 0
0.13125 0.517187 0
0.260938 0.456641 0
0.195703 0.45459 0
0.130469 0.452539 0
0.259375 0.391406 0
0.194531 0.389648 0
0.129688 0.387891 0
0.13125 0.517187 0
0.065625 0.514844 0
0 0.5125 0
0.130469 0.452539 0
0.0652344 0.450488 0
0 0.448437 0
0.129688 0.387891 0
0.0648438 0.386133 0
0 0.384375 0
0.259375 0.391406 0
0.194531 0.389648 0
0.129688 0.387891 0
0.257812 0.326172 0
0.193359 0.324707 0
0.128906 0.323242 0
0.25625 0.260937 0
0.192187 0.259766 0
0.128125 0.258594 0
0.129688 0.387891 0
0.0648438 0.386133 0
0 0.384375 0
0.128906 0.323242 0
0.0644531 0.321777 0
0 0.320312 0
0.128125 0.258594 0
0.0640625 0.257422 0
0 0.25625 0
0.5125 0.265625 0
0.448437 0.264453 0
0.384375 0.263281 0
0.509375 0.199219 0
0.445703 0.19834 0
0.382031 0.197461 0
0.50625 0.132812 0
0.442969 0.132227 0
0.379688 0.131641 0
0.384375 0.263281 0
0.320312 0.262109 0
0.25625 0.260937 0
0.382031 0.197461 0
0.318359 0.196582 0
0.254687 0.195703 0
[...]
POINT_DATA 34560
VECTORS v double
1.24585 -0.28024 0
1.23092 -0.256025 0
1.21777 -0.234129 0
1.21359 -0.262997 0
1.19684 -0.242074 0
1.18217 -0.222201 0
1.17659 -0.245495 0
1.15866 -0.226878 0
1.14241 -0.208962 0
1.21777 -0.234129 0
1.20625 -0.213056 0
1.19629 -0.193579 0
1.18217 -0.222201 0
1.1688 -0.203135 0
1.15737 -0.185152 0
1.14241 -0.208962 0
1.12771 -0.191695 0
1.11472 -0.175162 0
1.17659 -0.245495 0
1.15866 -0.226878 0
1.14241 -0.208962 0
1.13359 -0.225391 0
1.11452 -0.209234 0
1.09714 -0.193534 0
1.08433 -0.205957 0
1.06471 -0.191953 0
1.04661 -0.178167 0
1.14241 -0.208962 0
1.12771 -0.191695 0
1.11472 -0.175162 0
1.09714 -0.193534 0
1.08129 -0.178216 0
1.06713 -0.163424 0
1.04661 -0.178167 0
1.03005 -0.164589 0
1.01507 -0.151346 0
1.19629 -0.193579 0
1.18709 -0.174958 0
1.1792 -0.15742 0
1.15737 -0.185152 0
1.14653 -0.167824 0
1.13735 -0.151378 0
1.11472 -0.175162 0
1.10259 -0.159185 0
1.09204 -0.143845 0
1.1792 -0.15742 0
1.17152 -0.14055 0
1.16489 -0.124358 0
1.13735 -0.151378 0
1.12831 -0.135391 0
1.12062 -0.119997 0
1.09204 -0.143845 0
1.08188 -0.128887 0
1.0731 -0.114372 0
1.11472 -0.175162 0
1.10259 -0.159185 0
1.09204 -0.143845 0
1.06713 -0.163424 0
1.05395 -0.148968 0
1.04234 -0.134984 0
1.01507 -0.151346 0
1.00114 -0.138306 0
0.988728 -0.125593 0
1.09204 -0.143845 0
1.08188 -0.128887 0
1.0731 -0.114372 0
1.04234 -0.134984 0
1.0313 -0.121233 0
1.02163 -0.107801 0
0.988728 -0.125593 0
0.977016 -0.113016 0
0.966671 -0.100656 0
1.08433 -0.205957 0
1.06471 -0.191953 0
1.04661 -0.178167 0
1.02989 -0.185862 0
1.00994 -0.173855 0
0.991386 -0.161911 0
0.97076 -0.166236 0
0.950691 -0.155969 0
0.931879 -0.145659 0
1.04661 -0.178167 0
1.03005 -0.164589 0
1.01507 -0.151346 0
0.991386 -0.161911 0
0.974317 -0.150022 0
0.95873 -0.138333 0
0.931879 -0.145659 0
0.914481 -0.13532 0
0.898463 -0.12508 0
0.97076 -0.166236 0
0.950691 -0.155969 0
0.931879 -0.145659 0
0.906915 -0.145906 0
0.886842 -0.137288 0
0.86794 -0.128575 0
0.838456 -0.126298 0
0.818596 -0.119137 0
0.799791 -0.111846 0
0.931879 -0.145659 0
0.914481 -0.13532 0
0.898463 -0.12508 0
0.86794 -0.128575 0
0.850366 -0.119773 0
0.834096 -0.110997 0
0.799791 -0.111846 0
0.78223 -0.104432 0
0.765879 -0.0970001 0
1.01507 -0.151346 0
1.00114 -0.138306 0
0.988728 -0.125593 0
0.95873 -0.138333 0
0.944243 -0.126736 0
0.931204 -0.115352 0
0.898463 -0.12508 0
0.883567 -0.114856 0
0.870058 -0.104757 0
0.988728 -0.125593 0
0.977016 -0.113016 0
0.966671 -0.100656 0
0.931204 -0.115352 0
0.918974 -0.10402 0
0.908091 -0.0928185 0
0.870058 -0.104757 0
0.857435 -0.0946508 0
0.846136 -0.084607 0
0.898463 -0.12508 0
0.883567 -0.114856 0
0.870058 -0.104757 0
0.834096 -0.110997 0
0.81894 -0.102174 0
0.805119 -0.0934078 0
0.765879 -0.0970001 0
0.750616 -0.0894882 0
0.736624 -0.0819878 0
0.870058 -0.104757 0
0.857435 -0.0946508 0
0.846136 -0.084607 0
0.805119 -0.0934078 0
0.792232 -0.0845815 0
0.780646 -0.0757621 0
0.736624 -0.0819878 0
0.723593 -0.0743996 0
0.711831 -0.0667808 0
1.16489 -0.124358 0
1.15836 -0.108556 0
1.1527 -0.0930948 0
1.12062 -0.119997 0
1.11304 -0.104854 0
1.10659 -0.090023 0
1.0731 -0.114372 0
1.06462 -0.10005 0
1.05735 -0.0859598 0
1.1527 -0.0930948 0
1.14699 -0.0777698 0
1.14197 -0.0625091 0
1.10659 -0.090023 0
1.10012 -0.0752418 0
1.09457 -0.0605176 0
1.05735 -0.0859598 0
1.05024 -0.0718832 0
1.04415 -0.0578251 0
1.0731 -0.114372 0
1.06462 -0.10005 0
1.05735 -0.0859598 0
1.02163 -0.107801 0
1.01247 -0.094464 0
1.00454 -0.0812823 0
0.966671 -0.100656 0
0.956962 -0.0883294 0
0.948499 -0.0760906 0
1.05735 -0.0859598 0
1.05024 -0.0718832 0
1.04415 -0.0578251 0
1.00454 -0.0812823 0
0.996953 -0.0680592 0
0.990445 -0.054805 0
0.948499 -0.0760906 0
0.940535 -0.0637726 0
0.933692 -0.051387 0
1.14197 -0.0625091 0
1.13708 -0.0471601 0
1.13282 -0.0316648 0
1.09457 -0.0605176 0
1.08922 -0.0456737 0
1.08469 -0.0306943 0
1.04415 -0.0578251 0
1.03842 -0.0436313 0
1.03361 -0.029302 0
1.13282 -0.0316648 0
1.12862 -0.0159486 0
1.125 0 0
1.08469 -0.0306943 0
1.08031 -0.0154843 0
1.07666 0 0
1.03361 -0.029302 0
1.02908 -0.0147562 0
1.02539 0 0
1.04415 -0.0578251 0
1.03842 -0.0436313 0
1.03361 -0.029302 0
0.990445 -0.054805 0
0.984437 -0.0413867 0
0.979433 -0.0278205 0
0.933692 -0.051387 0
0.927471 -0.0388245 0
0.922313 -0.0261007 0
1.03361 -0.029302 0
1.02908 -0.0147562 0
1.02539 0 0
0.979433 -0.0278205 0
0.974848 -0.0140329 0
0.971191 0 0
0.922313 -0.0261007 0
0.917691 -0.0131587 0
0.914062 0 0
0.966671 -0.100656 0
0.956962 -0.0883294 0
0.948499 -0.0760906 0
0.908091 -0.0928185 0
0.897957 -0.0815895 0
0.889081 -0.0703882 0
0.846136 -0.084607 0
0.835676 -0.0744941 0
0.826481 -0.0643615 0
0.948499 -0.0760906 0
0.940535 -0.0637726 0
0.933692 -0.051387 0
0.889081 -0.0703882 0
0.880829 -0.0590697 0
0.873737 -0.0476497 0
0.826481 -0.0643615 0
0.818017 -0.0540861 0
0.810744 -0.0436815 0
0.846136 -0.084607 0
0.835676 -0.0744941 0
0.826481 -0.0643615 0
0.780646 -0.0757621 0
0.769966 -0.0668334 0
0.760554 -0.057844 0
0.711831 -0.0667808 0
0.701021 -0.0590315 0
0.691474 -0.0511935 0
0.826481 -0.0643615 0
0.818017 -0.0540861 0
0.810744 -0.0436815 0
0.760554 -0.057844 0
0.751959 -0.0486846 0
0.74458 -0.0393713 0
0.691474 -0.0511935 0
0.682813 -0.0431728 0
0.675387 -0.0349817 0
0.933692 -0.051387 0
0.927471 -0.0388245 0
0.922313 -0.0261007 0
0.873737 -0.0476497 0
0.867374 -0.036032 0
0.862128 -0.0242386 0
0.810744 -0.0436815 0
0.804291 -0.0330677 0
0.799001 -0.0222662 0
0.922313 -0.0261007 0
0.917691 -0.0131587 0
0.914062 0 0
0.862128 -0.0242386 0
0.857534 -0.0122254 0
0.854004 0 0
0.799001 -0.0222662 0
0.794453 -0.0112451 0
0.791016 0 0
0.810744 -0.0436815 0
0.804291 -0.0330677 0
0.799001 -0.0222662 0
0.74458 -0.0393713 0
0.738099 -0.029834 0
0.732821 -0.0200986 0
0.675387 -0.0349817 0
0.668923 -0.0265611 0
0.663698 -0.0179333 0
0.799001 -0.0222662 0
0.794453 -0.0112451 0
0.791016 0 0
0.732821 -0.0200986 0
0.728376 -0.010143 0
0.725098 0 0
0.663698 -0.0179333 0
0.659373 -0.00908487 0
0.65625 0 0
0.838456 -0.126298 0
0.818596 -0.119137 0
0.799791 -0.111846 0
0.765713 -0.106464 0
0.746147 -0.100628 0
0.727562 -0.094662 0
0.688432 -0.0873022 0
0.669333 -0.0826692 0
0.651126 -0.0779138 0
0.799791 -0.111846 0
0.78223 -0.104432 0
0.765879 -0.0970001 0
0.727562 -0.094662 0
0.710121 -0.0885669 0
0.693818 -0.0824357 0
0.651126 -0.0779138 0
0.633977 -0.0730365 0
0.617888 -0.0681177 0
0.688432 -0.0873022 0
0.669333 -0.0826692 0
0.651126 -0.0779138 0
0.606394 -0.0681759 0
0.587893 -0.0646402 0
0.570236 -0.0610077 0
0.518271 -0.0499466 0
0.500696 -0.0474266 0
0.483896 -0.0448315 0
0.651126 -0.0779138 0
0.633977 -0.0730365 0
0.617888 -0.0681177 0
0.570236 -0.0610077 0
0.553546 -0.0572714 0
0.537852 -0.0535009 0
0.483896 -0.0448315 0
0.467979 -0.0421522 0
0.452986 -0.0394486 0
0.765879 -0.0970001 0
0.750616 -0.0894882 0
0.736624 -0.0819878 0
0.693818 -0.0824357 0
0.678562 -0.0762119 0
0.66452 -0.0699753 0
0.617888 -0.0681177 0
0.602796 -0.0631069 0
0.588852 -0.0580735 0
0.736624 -0.0819878 0
0.723593 -0.0743996 0
0.711831 -0.0667808 0
0.66452 -0.0699753 0
0.651446 -0.0636362 0
0.639608 -0.0572442 0
0.588852 -0.0580735 0
0.575862 -0.0529382 0
0.564065 -0.0477414 0
0.617888 -0.0681177 0
0.602796 -0.0631069 0
0.588852 -0.0580735 0
0.537852 -0.0535009 0
0.523092 -0.0496496 0
0.509417 -0.0457776 0
0.452986 -0.0394486 0
0.438853 -0.0366796 0
0.425725 -0.0338963 0
0.588852 -0.0580735 0
0.575862 -0.0529382 0
0.564065 -0.0477414 0
0.509417 -0.0457776 0
0.496662 -0.041815 0
0.485047 -0.0377951 0
0.425725 -0.0338963 0
0.413461 -0.03104 0
0.402265 -0.0281396 0
0.518271 -0.0499466 0
0.500696 -0.0474266 0
0.483896 -0.0448315 0
0.421954 -0.0324827 0
0.405789 -0.0308644 0
0.390348 -0.0292004 0
0.311512 -0.0169137 0
0.297924 -0.0161037 0
0.28493 -0.0152725 0
0.483896 -0.0448315 0
0.467979 -0.0421522 0
0.452986 -0.0394486 0
0.390348 -0.0292004 0
0.375683 -0.0274755 0
0.361865 -0.0257394 0
0.28493 -0.0152725 0
0.272569 -0.0144 0
0.260918 -0.0135248 0
0.311512 -0.0169137 0
0.297924 -0.0161037 0
0.28493 -0.0152725 0
0.176606 -0.00500487 0
0.167736 -0.00475219 0
0.15929 -0.00450454 0
0 0 0
0 0 0
0 0 0
0.28493 -0.0152725 0
0.272569 -0.0144 0
0.260918 -0.0135248 0
0.15929 -0.00450454 0
0.151217 -0.00423883 0
0.143641 -0.00398452 0
0 0 0
0 0 0
0 0 0
0.452986 -0.0394486 0
0.438853 -0.0366796 0
0.425725 -0.0338963 0
0.361865 -0.0257394 0
0.348813 -0.0239554 0
0.336675 -0.022166 0
0.260918 -0.0135248 0
0.249897 -0.0126148 0
0.23964 -0.0117054 0
0.425725 -0.0338963 0
0.413461 -0.03104 0
0.402265 -0.0281396 0
0.336675 -0.022166 0
0.325314 -0.0203233 0
0.314926 -0.0184549 0
0.23964 -0.0117054 0
0.230025 -0.010762 0
0.221224 -0.00981003 0
0.260918 -0.0135248 0
0.249897 -0.0126148 0
0.23964 -0.0117054 0
0.143641 -0.00398452 0
0.13644 -0.00370845 0
0.129774 -0.00344287 0
0 0 0
0 0 0
0 0 0
0.23964 -0.0117054 0
0.230025 -0.010762 0
0.221224 -0.00981003 0
0.129774 -0.00344287 0
0.123492 -0.00315643 0
0.117778 -0.00287756 0
0 0 0
0 0 0
0 0 0
0.711831 -0.0667808 0
0.701021 -0.0590315 0
0.691474 -0.0511935 0
0.639608 -0.0572442 0
0.628749 -0.0507089 0
0.619146 -0.0440672 0
0.564065 -0.0477414 0
0.553252 -0.042403 0
0.543675 -0.0369538 0
0.691474 -0.0511935 0
0.682813 -0.0431728 0
0.675387 -0.0349817 0
0.619146 -0.0440672 0
0.610481 -0.0372339 0
0.603066 -0.0302198 0
0.543675 -0.0369538 0
0.53507 -0.0313173 0
0.527721 -0.0254987 0
0.564065 -0.0477414 0
0.553252 -0.042403 0
0.543675 -0.0369538 0
0.485047 -0.0377951 0
0.474397 -0.033646 0
0.46495 -0.029394 0
0.402265 -0.0281396 0
0.391983 -0.0251342 0
0.382842 -0.0220443 0
0.543675 -0.0369538 0
0.53507 -0.0313173 0
0.527721 -0.0254987 0
0.46495 -0.029394 0
0.456485 -0.0249697 0
0.449271 -0.0203728 0
0.382842 -0.0220443 0
0.374663 -0.0188087 0
0.367702 -0.0154241 0
0.675387 -0.0349817 0
0.668923 -0.0265611 0
0.663698 -0.0179333 0
0.603066 -0.0302198 0
0.596666 -0.022972 0
0.591537 -0.0155147 0
0.527721 -0.0254987 0
0.521427 -0.0194513 0
0.516428 -0.0131943 0
0.663698 -0.0179333 0
0.659373 -0.00908487 0
0.65625 0 0
0.591537 -0.0155147 0
0.587378 -0.00783859 0
0.584473 0 0
0.516428 -0.0131943 0
0.512457 -0.00672353 0
0.509766 0 0
0.527721 -0.0254987 0
0.521427 -0.0194513 0
0.516428 -0.0131943 0
0.449271 -0.0203728 0
0.443129 -0.0155591 0
0.438298 -0.0105529 0
0.367702 -0.0154241 0
0.361802 -0.0118491 0
0.357201 -0.00809374 0
0.516428 -0.0131943 0
0.512457 -0.00672353 0
0.509766 0 0
0.438298 -0.0105529 0
0.434549 -0.00534571 0
0.432129 0 0
0.357201 -0.00809374 0
0.353712 -0.00416595 0
0.351562 0 0
0.402265 -0.0281396 0
0.391983 -0.0251342 0
0.382842 -0.0220443 0
0.314926 -0.0184549 0
0.305362 -0.0165111 0
0.296847 -0.0145105 0
0.221224 -0.00981003 0
0.213104 -0.00881468 0
0.205865 -0.00779144 0
0.382842 -0.0220443 0
0.374663 -0.0188087 0
0.367702 -0.0154241 0
0.296847 -0.0145105 0
0.289223 -0.0124035 0
0.282743 -0.0101877 0
0.205865 -0.00779144 0
0.199371 -0.00670694 0
0.193855 -0.00556684 0
0.221224 -0.00981003 0
0.213104 -0.00881468 0
0.205865 -0.00779144 0
0.117778 -0.00287756 0
0.112469 -0.00257886 0
0.107778 -0.00227784 0
0 0 0
0 0 0
0 0 0
0.205865 -0.00779144 0
0.199371 -0.00670694 0
0.193855 -0.00556684 0
0.107778 -0.00227784 0
0.103527 -0.00194746 0
0.0999482 -0.00160821 0
0 0 0
0 0 0
0 0 0
0.367702 -0.0154241 0
0.361802 -0.0118491 0
0.357201 -0.00809374 0
0.282743 -0.0101877 0
0.277263 -0.00782068 0
0.273039 -0.005313 0
0.193855 -0.00556684 0
0.189204 -0.00433993 0
0.185659 -0.00300401 0
0.357201 -0.00809374 0
0.353712 -0.00416595 0
0.351562 0 0
0.273039 -0.005313 0
0.269894 -0.00265975 0
0.268066 0 0
0.185659 -0.00300401 0
0.18307 -0.00157647 0
0.181641 0 0
0.193855 -0.00556684 0
0.189204 -0.00433993 0
0.185659 -0.00300401 0
0.0999482 -0.00160821 0
0.0968965 -0.00124665 0
0.094676 -0.000837625 0
0 0 0
0 0 0
0 0 0
0.185659 -0.00300401 0
0.18307 -0.00157647 0
0.181641 0 0
0.094676 -0.000837625 0
0.0930348 -0.000348255 0
0.0922852 0 0
0 0 0
0 0 0
0 0 0
1.72173 -0.320203 0
1.68684 -0.351742 0
1.64753 -0.377782 0
1.64922 -0.275083 0
1.61843 -0.304093 0
1.58381 -0.328195 0
1.57299 -0.237488 0
1.54735 -0.263832 0
1.51804 -0.286171 0
1.64753 -0.377782 0
1.60737 -0.39679 0
1.5644 -0.409715 0
1.58381 -0.328195 0
1.54838 -0.346904 0
1.51041 -0.360301 0
1.51804 -0.286171 0
1.48788 -0.304132 0
1.45524 -0.317595 0
1.57299 -0.237488 0
1.54735 -0.263832 0
1.51804 -0.286171 0
1.50174 -0.207512 0
1.47954 -0.230012 0
1.45418 -0.249357 0
1.42697 -0.178282 0
1.40689 -0.198238 0
1.38399 -0.215583 0
1.51804 -0.286171 0
1.48788 -0.304132 0
1.45524 -0.317595 0
1.45418 -0.249357 0
1.42773 -0.265155 0
1.39896 -0.277363 0
1.38399 -0.215583 0
1.36014 -0.230039 0
1.33424 -0.241516 0
1.5644 -0.409715 0
1.52429 -0.416329 0
1.48323 -0.41712 0
1.51041 -0.360301 0
1.4747 -0.368384 0
1.43799 -0.371808 0
1.45524 -0.317595 0
1.42413 -0.326659 0
1.39188 -0.331542 0
1.48323 -0.41712 0
1.44671 -0.413488 0
1.41064 -0.405529 0
1.43799 -0.371808 0
1.40488 -0.370999 0
1.37201 -0.366469 0
1.39188 -0.331542 0
1.36221 -0.332652 0
1.3325 -0.33032 0
1.45524 -0.317595 0
1.42413 -0.326659 0
1.39188 -0.331542 0
1.39896 -0.277363 0
1.37103 -0.285962 0
1.34187 -0.291146 0
1.33424 -0.241516 0
1.30889 -0.249995 0
1.28243 -0.255607 0
1.39188 -0.331542 0
1.36221 -0.332652 0
1.3325 -0.33032 0
1.34187 -0.291146 0
1.31452 -0.293216 0
1.28691 -0.292392 0
1.28243 -0.255607 0
1.25733 -0.258535 0
1.23194 -0.258951 0
1.42697 -0.178282 0
1.40689 -0.198238 0
1.38399 -0.215583 0
1.3503 -0.153944 0
1.33235 -0.171556 0
1.31187 -0.186982 0
1.27391 -0.130837 0
1.25761 -0.146408 0
1.23897 -0.160176 0
1.38399 -0.215583 0
1.36014 -0.230039 0
1.33424 -0.241516 0
1.31187 -0.186982 0
1.29047 -0.199966 0
1.26718 -0.210453 0
1.23897 -0.160176 0
1.21943 -0.171903 0
1.19813 -0.181536 0
1.27391 -0.130837 0
1.25761 -0.146408 0
1.23897 -0.160176 0
1.19628 -0.110323 0
1.18122 -0.123792 0
1.16404 -0.13577 0
1.11655 -0.0907751 0
1.10239 -0.102462 0
1.08625 -0.112933 0
1.23897 -0.160176 0
1.21943 -0.171903 0
1.19813 -0.181536 0
1.16404 -0.13577 0
1.14596 -0.146061 0
1.12624 -0.154616 0
1.08625 -0.112933 0
1.06928 -0.122015 0
1.05078 -0.129658 0
1.33424 -0.241516 0
1.30889 -0.249995 0
1.28243 -0.255607 0
1.26718 -0.210453 0
1.24421 -0.218405 0
1.22013 -0.223916 0
1.19813 -0.181536 0
1.17693 -0.189019 0
1.15466 -0.194424 0
1.28243 -0.255607 0
1.25733 -0.258535 0
1.23194 -0.258951 0
1.22013 -0.223916 0
1.19703 -0.227124 0
1.17355 -0.228148 0
1.15466 -0.194424 0
1.13308 -0.197843 0
1.11105 -0.199372 0
1.19813 -0.181536 0
1.17693 -0.189019 0
1.15466 -0.194424 0
1.12624 -0.154616 0
1.10647 -0.16139 0
1.08566 -0.166424 0
1.05078 -0.129658 0
1.03215 -0.135814 0
1.01253 -0.140512 0
1.15466 -0.194424 0
1.13308 -0.197843 0
1.11105 -0.199372 0
1.08566 -0.166424 0
1.06532 -0.169795 0
1.0445 -0.171556 0
1.01253 -0.140512 0
0.993229 -0.143799 0
0.973441 -0.145717 0
1.41064 -0.405529 0
1.37998 -0.394907 0
1.35098 -0.381048 0
1.37201 -0.366469 0
1.3437 -0.358865 0
1.31668 -0.348816 0
1.3325 -0.33032 0
1.30624 -0.325222 0
1.28089 -0.317685 0
1.35098 -0.381048 0
1.32642 -0.366015 0
1.304 -0.349425 0
1.31668 -0.348816 0
1.2934 -0.33703 0
1.27195 -0.323657 0
1.28089 -0.317685 0
1.25851 -0.308295 0
1.23751 -0.297291 0
1.3325 -0.33032 0
1.30624 -0.325222 0
1.28089 -0.317685 0
1.28691 -0.292392 0
1.26203 -0.289148 0
1.23775 -0.283722 0
1.23194 -0.258951 0
1.20872 -0.257189 0
1.18599 -0.253488 0
1.28089 -0.317685 0
1.25851 -0.308295 0
1.23751 -0.297291 0
1.23775 -0.283722 0
1.21595 -0.276628 0
1.19531 -0.268047 0
1.18599 -0.253488 0
1.1653 -0.248215 0
1.14556 -0.241528 0
1.304 -0.349425 0
1.28564 -0.332448 0
1.26991 -0.314598 0
1.27195 -0.323657 0
1.25411 -0.309282 0
1.23842 -0.294195 0
1.23751 -0.297291 0
1.21949 -0.285241 0
1.20327 -0.272333 0
1.26991 -0.314598 0
1.25683 -0.297176 0
1.24585 -0.28024 0
1.23842 -0.294195 0
1.22496 -0.278773 0
1.21359 -0.262997 0
1.20327 -0.272333 0
1.18902 -0.258979 0
1.17659 -0.245495 0
1.23751 -0.297291 0
1.21949 -0.285241 0
1.20327 -0.272333 0
1.19531 -0.268047 0
1.17736 -0.258428 0
1.161 -0.247938 0
1.14556 -0.241528 0
1.12812 -0.233776 0
1.11203 -0.22513 0
1.20327 -0.272333 0
1.18902 -0.258979 0
1.17659 -0.245495 0
1.161 -0.247938 0
1.14647 -0.236897 0
1.13359 -0.225391 0
1.11203 -0.22513 0
1.09748 -0.215809 0
1.08433 -0.205957 0
1.23194 -0.258951 0
1.20872 -0.257189 0
1.18599 -0.253488 0
1.17355 -0.228148 0
1.15177 -0.227271 0
1.13028 -0.224675 0
1.11105 -0.199372 0
1.09035 -0.199225 0
1.06982 -0.197562 0
1.18599 -0.253488 0
1.1653 -0.248215 0
1.14556 -0.241528 0
1.13028 -0.224675 0
1.11043 -0.220664 0
1.09131 -0.21535 0
1.06982 -0.197562 0
1.05064 -0.194615 0
1.03204 -0.190495 0
1.11105 -0.199372 0
1.09035 -0.199225 0
1.06982 -0.197562 0
1.0445 -0.171556 0
1.02472 -0.171889 0
1.00502 -0.170904 0
0.973441 -0.145717 0
0.954456 -0.146401 0
0.935481 -0.145949 0
1.06982 -0.197562 0
1.05064 -0.194615 0
1.03204 -0.190495 0
1.00502 -0.170904 0
0.986411 -0.168796 0
0.968282 -0.165647 0
0.935481 -0.145949 0
0.917401 -0.144509 0
0.899694 -0.142153 0
1.14556 -0.241528 0
1.12812 -0.233776 0
1.11203 -0.22513 0
1.09131 -0.21535 0
1.07412 -0.209045 0
1.05805 -0.201915 0
1.03204 -0.190495 0
1.01509 -0.185458 0
0.99911 -0.179649 0
1.11203 -0.22513 0
1.09748 -0.215809 0
1.08433 -0.205957 0
1.05805 -0.201915 0
1.04335 -0.194168 0
1.02989 -0.185862 0
0.99911 -0.179649 0
0.984381 -0.173219 0
0.97076 -0.166236 0
1.03204 -0.190495 0
1.01509 -0.185458 0
0.99911 -0.179649 0
0.968282 -0.165647 0
0.951537 -0.161667 0
0.935616 -0.156971 0
0.899694 -0.142153 0
0.883151 -0.13905 0
0.867314 -0.13531 0
0.99911 -0.179649 0
0.984381 -0.173219 0
0.97076 -0.166236 0
0.935616 -0.156971 0
0.920784 -0.151695 0
0.906915 -0.145906 0
0.867314 -0.13531 0
0.85245 -0.131042 0
0.838456 -0.126298 0
1.11655 -0.0907751 0
1.10239 -0.102462 0
1.08625 -0.112933 0
1.03522 -0.0734116 0
1.02175 -0.0833498 0
1.00647 -0.0922944 0
0.951037 -0.056494 0
0.938147 -0.0648751 0
0.923503 -0.0724588 0
1.08625 -0.112933 0
1.06928 -0.122015 0
1.05078 -0.129658 0
1.00647 -0.0922944 0
0.990382 -0.100094 0
0.972853 -0.106705 0
0.923503 -0.0724588 0
0.908088 -0.079117 0
0.891292 -0.0848085 0
0.951037 -0.056494 0
0.938147 -0.0648751 0
0.923503 -0.0724588 0
0.86144 -0.0411079 0
0.849297 -0.047928 0
0.835444 -0.0541262 0
0.761101 -0.0267353 0
0.750214 -0.0320377 0
0.737552 -0.0368893 0
0.923503 -0.0724588 0
0.908088 -0.079117 0
0.891292 -0.0848085 0
0.835444 -0.0541262 0
0.820792 -0.0595939 0
0.804776 -0.0642993 0
0.737552 -0.0368893 0
0.724042 -0.0412042 0
0.709131 -0.0449503 0
1.05078 -0.129658 0
1.03215 -0.135814 0
1.01253 -0.140512 0
0.972853 -0.106705 0
0.95512 -0.112084 0
0.936421 -0.11625 0
0.891292 -0.0848085 0
0.87424 -0.089495 0
0.856249 -0.0931876 0
1.01253 -0.140512 0
0.993229 -0.143799 0
0.973441 -0.145717 0
0.936421 -0.11625 0
0.917921 -0.119243 0
0.898917 -0.121089 0
0.856249 -0.0931876 0
0.838373 -0.0959136 0
0.81999 -0.0976921 0
0.891292 -0.0848085 0
0.87424 -0.089495 0
0.856249 -0.0931876 0
0.804776 -0.0642993 0
0.788435 -0.068209 0
0.771149 -0.0713272 0
0.709131 -0.0449503 0
0.693805 -0.0481011 0
0.677498 -0.050653 0
0.856249 -0.0931876 0
0.838373 -0.0959136 0
0.81999 -0.0976921 0
0.771149 -0.0713272 0
0.753894 -0.0736765 0
0.73611 -0.0752653 0
0.677498 -0.050653 0
0.661126 -0.0526243 0
0.644188 -0.0540144 0
0.761101 -0.0267353 0
0.750214 -0.0320377 0
0.737552 -0.0368893 0
0.640903 -0.0148755 0
0.632294 -0.0185807 0
0.621834 -0.0219961 0
0.486355 -0.00556437 0
0.481101 -0.0076638 0
0.474011 -0.00962126 0
0.737552 -0.0368893 0
0.724042 -0.0412042 0
0.709131 -0.0449503 0
0.621834 -0.0219961 0
0.610413 -0.0250566 0
0.5975 -0.0277352 0
0.474011 -0.00962126 0
0.4659 -0.0114005 0
0.456292 -0.0129779 0
0.486355 -0.00556437 0
0.481101 -0.0076638 0
0.474011 -0.00962126 0
0.279545 -0.00128729 0
0.277968 -0.00195117 0
0.274903 -0.00257355 0
0 0 0
0 0 0
0 0 0
0.474011 -0.00962126 0
0.4659 -0.0114005 0
0.456292 -0.0129779 0
0.274903 -0.00257355 0
0.271136 -0.00314279 0
0.266096 -0.00364212 0
0 0 0
0 0 0
0 0 0
0.709131 -0.0449503 0
0.693805 -0.0481011 0
0.677498 -0.050653 0
0.5975 -0.0277352 0
0.584038 -0.0300128 0
0.569504 -0.0318793 0
0.456292 -0.0129779 0
0.446012 -0.0143477 0
0.434623 -0.0154911 0
0.677498 -0.050653 0