# vtk DataFile Version 3.0
#This file was generated by the deal.II library on 2025/1/8 at 2:36:15
ASCII
DATASET UNSTRUCTURED_GRID

POINTS 34560 double
1.1 1.1 0
1.03125 1.09531 0
0.9625 1.09063 0
1.09375 1.03125 0
1.02539 1.02686 0
0.957031 1.02246 0
1.0875 0.9625 0
1.01953 0.958398 0
0.951563 0.954297 0
0.9625 1.09063 0
0.89375 1.08594 0
0.825 1.08125 0
0.957031 1.02246 0
0.888672 1.01807 0
0.820312 1.01367 0
0.951563 0.954297 0
0.883594 0.950195 0
0.815625 0.946094 0
1.0875 0.9625 0
1.01953 0.958398 0
0.951563 0.954297 0
1.08125 0.89375 0
1.01367 0.889941 0
0.946094 0.886133 0
1.075 0.825 0
1.00781 0.821484 0
0.940625 0.817969 0
0.951563 0.954297 0
0.883594 0.950195 0
0.815625 0.946094 0
0.946094 0.886133 0
0.878516 0.882324 0
0.810938 0.878516 0
0.940625 0.817969 0
0.873438 0.814453 0
0.80625 0.810937 0
0.825 1.08125 0
0.75625 1.07656 0
0.6875 1.07187 0
0.820312 1.01367 0
0.751953 1.00928 0
0.683594 1.00488 0
0.815625 0.946094 0
0.747656 0.941992 0
0.679688 0.937891 0
0.6875 1.07187 0
0.61875 1.06719 0
0.55 1.0625 0
0.683594 1.00488 0
0.615234 1.00049 0
0.546875 0.996094 0
0.679688 0.937891 0
0.611719 0.933789 0
0.54375 0.929688 0
0.815625 0.946094 0
0.747656 0.941992 0
0.679688 0.937891 0
0.810938 0.878516 0
0.743359 0.874707 0
0.675781 0.870898 0
0.80625 0.810937 0
0.739063 0.807422 0
0.671875 0.803906 0
0.679688 0.937891 0
0.611719 0.933789 0
0.54375 0.929688 0
0.675781 0.870898 0
0.608203 0.86709 0
0.540625 0.863281 0
0.671875 0.803906 0
0.604688 0.800391 0
0.5375 0.796875 0
1.075 0.825 0
1.00781 0.821484 0
0.940625 0.817969 0
1.06875 0.75625 0
1.00195 0.753027 0
0.935156 0.749805 0
1.0625 0.6875 0
0.996094 0.68457 0
0.929688 0.681641 0
0.940625 0.817969 0
0.873438 0.814453 0
0.80625 0.810937 0
0.935156 0.749805 0
0.868359 0.746582 0
0.801563 0.743359 0
0.929688 0.681641 0
0.863281 0.678711 0
0.796875 0.675781 0
1.0625 0.6875 0
0.996094 0.68457 0
0.929688 0.681641 0
1.05625 0.61875 0
0.990234 0.616113 0
0.924219 0.613477 0
1.05 0.55 0
0.984375 0.547656 0
0.91875 0.545313 0
0.929688 0.681641 0
0.863281 0.678711 0
0.796875 0.675781 0
0.924219 0.613477 0
0.858203 0.61084 0
0.792188 0.608203 0
0.91875 0.545313 0
0.853125 0.542969 0
0.7875 0.540625 0
0.80625 0.810937 0
0.739063 0.807422 0
0.671875 0.803906 0
0.801563 0.743359 0
0.734766 0.740137 0
0.667969 0.736914 0
0.796875 0.675781 0
0.730469 0.672852 0
0.664062 0.669922 0
0.671875 0.803906 0
0.604688 0.800391 0
0.5375 0.796875 0
0.667969 0.736914 0
0.601172 0.733691 0
0.534375 0.730469 0
0.664062 0.669922 0
0.597656 0.666992 0
0.53125 0.664062 0
0.796875 0.675781 0
0.730469 0.672852 0
0.664062 0.669922 0
0.792188 0.608203 0
0.726172 0.605566 0
0.660156 0.60293 0
0.7875 0.540625 0
0.721875 0.538281 0
0.65625 0.535937 0
0.664062 0.669922 0
0.597656 0.666992 0
0.53125 0.664062 0
0.660156 0.60293 0
0.594141 0.600293 0
0.528125 0.597656 0
0.65625 0.535937 0
0.590625 0.533594 0
0.525 0.53125 0
0.55 1.0625 0
0.48125 1.05781 0
0.4125 1.05313 0
0.546875 0.996094 0
0.478516 0.991699 0
0.410156 0.987305 0
0.54375 0.929688 0
0.475781 0.925586 0
0.407813 0.921484 0
0.4125 1.05313 0
0.34375 1.04844 0
0.275 1.04375 0
0.410156 0.987305 0
0.341797 0.98291 0
0.273438 0.978516 0
0.407813 0.921484 0
0.339844 0.917383 0
0.271875 0.913281 0
0.54375 0.929688 0
0.475781 0.925586 0
0.407813 0.921484 0
0.540625 0.863281 0
0.473047 0.859473 0
0.405469 0.855664 0
0.5375 0.796875 0
0.470313 0.793359 0
0.403125 0.789844 0
0.407813 0.921484 0
0.339844 0.917383 0
0.271875 0.913281 0
0.405469 0.855664 0
0.337891 0.851855 0
0.270313 0.848047 0
0.403125 0.789844 0
0.335938 0.786328 0
0.26875 0.782813 0
0.275 1.04375 0
0.20625 1.03906 0
0.1375 1.03437 0
0.273438 0.978516 0
0.205078 0.974121 0
0.136719 0.969727 0
0.271875 0.913281 0
0.203906 0.90918 0
0.135938 0.905078 0
0.1375 1.03437 0
0.06875 1.02969 0
0 1.025 0
0.136719 0.969727 0
0.0683594 0.965332 0
0 0.960937 0
0.135938 0.905078 0
0.0679688 0.900977 0
0 0.896875 0
0.271875 0.913281 0
0.203906 0.90918 0
0.135938 0.905078 0
0.270313 0.848047 0
0.202734 0.844238 0
0.135156 0.84043 0
0.26875 0.782813 0
0.201563 0.779297 0
0.134375 0.775781 0
0.135938 0.905078 0
0.0679688 0.900977 0
0 0.896875 0
0.135156 0.84043 0
0.0675781 0.836621 0
0 0.832812 0
0.134375 0.775781 0
0.0671875 0.772266 0
0 0.76875 0
0.5375 0.796875 0
0.470313 0.793359 0
0.403125 0.789844 0
0.534375 0.730469 0
0.467578 0.727246 0
0.400781 0.724023 0
0.53125 0.664062 0
0.464844 0.661133 0
0.398438 0.658203 0
0.403125 0.789844 0
0.335938 0.786328 0
0.26875 0.782813 0
0.400781 0.724023 0
0.333984 0.720801 0
0.267188 0.717578 0
0.398438 0.658203 0
0.332031 0.655273 0
0.265625 0.652344 0
0.53125 0.664062 0
0.464844 0.661133 0
0.398438 0.658203 0
0.528125 0.597656 0
0.462109 0.59502 0
0.396094 0.592383 0
0.525 0.53125 0
0.459375 0.528906 0
0.39375 0.526563 0
0.398438 0.658203 0
0.332031 0.655273 0
0.265625 0.652344 0
0.396094 0.592383 0
0.330078 0.589746 0
0.264062 0.587109 0
0.39375 0.526563 0
0.328125 0.524219 0
0.2625 0.521875 0
0.26875 0.782813 0
0.201563 0.779297 0
0.134375 0.775781 0
0.267188 0.717578 0
0.200391 0.714355 0
0.133594 0.711133 0
0.265625 0.652344 0
0.199219 0.649414 0
0.132812 0.646484 0
0.134375 0.775781 0
0.0671875 0.772266 0
0 0.76875 0
0.133594 0.711133 0
0.0667969 0.70791 0
0 0.704687 0
0.132812 0.646484 0
0.0664062 0.643555 0
0 0.640625 0
0.265625 0.652344 0
0.199219 0.649414 0
0.132812 0.646484 0
0.264062 0.587109 0
0.198047 0.584473 0
0.132031 0.581836 0
0.2625 0.521875 0
0.196875 0.519531 0
0.13125 0.517187 0
0.132812 0.646484 0
0.0664062 0.643555 0
0 0.640625 0
0.132031 0.581836 0
0.0660156 0.579199 0
0 0.576562 0
0.13125 0.517187 0
0.065625 0.514844 0
0 0.5125 0
1.05 0.55 0
0.984375 0.547656 0
0.91875 0.545313 0
1.04375 0.48125 0
0.978516 0.479199 0
0.913281 0.477148 0
1.0375 0.4125 0
0.972656 0.410742 0
0.907813 0.408984 0
0.91875 0.545313 0
0.853125 0.542969 0
0.7875 0.540625 0
0.913281 0.477148 0
0.848047 0.475098 0
0.782813 0.473047 0
0.907813 0.408984 0
0.842969 0.407227 0
0.778125 0.405469 0
1.0375 0.4125 0
0.972656 0.410742 0
0.907813 0.408984 0
1.03125 0.34375 0
0.966797 0.342285 0
0.902344 0.34082 0
1.025 0.275 0
0.960937 0.273828 0
0.896875 0.272656 0
0.907813 0.408984 0
0.842969 0.407227 0
0.778125 0.405469 0
0.902344 0.34082 0
0.837891 0.339355 0
0.773438 0.337891 0
0.896875 0.272656 0
0.832812 0.271484 0
0.76875 0.270313 0
0.7875 0.540625 0
0.721875 0.538281 0
0.65625 0.535937 0
0.782813 0.473047 0
0.717578 0.470996 0
0.652344 0.468945 0
0.778125 0.405469 0
0.713281 0.403711 0
0.648438 0.401953 0
0.65625 0.535937 0
0.590625 0.533594 0
0.525 0.53125 0
0.652344 0.468945 0
0.587109 0.466895 0
0.521875 0.464844 0
0.648438 0.401953 0
0.583594 0.400195 0
0.51875 0.398438 0
0.778125 0.405469 0
0.713281 0.403711 0
0.648438 0.401953 0
0.773438 0.337891 0
0.708984 0.336426 0
0.644531 0.334961 0
0.76875 0.270313 0
0.704687 0.269141 0
0.640625 0.267969 0
0.648438 0.401953 0
0.583594 0.400195 0
0.51875 0.398438 0
0.644531 0.334961 0
0.580078 0.333496 0
0.515625 0.332031 0
0.640625 0.267969 0
0.576562 0.266797 0
0.5125 0.265625 0
1.025 0.275 0
0.960937 0.273828 0
0.896875 0.272656 0
1.01875 0.20625 0
0.955078 0.205371 0
0.891406 0.204492 0
1.0125 0.1375 0
0.949219 0.136914 0
0.885937 0.136328 0
0.896875 0.272656 0
0.832812 0.271484 0
0.76875 0.270313 0
0.891406 0.204492 0
0.827734 0.203613 0
0.764062 0.202734 0
0.885937 0.136328 0
0.822656 0.135742 0
0.759375 0.135156 0
1.0125 0.1375 0
0.949219 0.136914 0
0.885937 0.136328 0
1.00625 0.06875 0
0.943359 0.068457 0
0.880469 0.0681641 0
1 0 0
0.9375 0 0
0.875 0 0
0.885937 0.136328 0
0.822656 0.135742 0
0.759375 0.135156 0
0.880469 0.0681641 0
0.817578 0.0678711 0
0.754687 0.0675781 0
0.875 0 0
0.8125 0 0
0.75 0 0
0.76875 0.270313 0
0.704687 0.269141 0
0.640625 0.267969 0
0.764062 0.202734 0
0.700391 0.201855 0
0.636719 0.200977 0
0.759375 0.135156 0
0.696094 0.13457 0
0.632812 0.133984 0
0.640625 0.267969 0
0.576562 0.266797 0
0.5125 0.265625 0
0.636719 0.200977 0
0.573047 0.200098 0
0.509375 0.199219 0
0.632812 0.133984 0
0.569531 0.133398 0
0.50625 0.132812 0
0.759375 0.135156 0
0.696094 0.13457 0
0.632812 0.133984 0
0.754687 0.0675781 0
0.691797 0.0672852 0
0.628906 0.0669922 0
0.75 0 0
0.6875 0 0
0.625 0 0
0.632812 0.133984 0
0.569531 0.133398 0
0.50625 0.132812 0
0.628906 0.0669922 0
0.566016 0.0666992 0
0.503125 0.0664062 0
0.625 0 0
0.5625 0 0
0.5 0 0
0.525 0.53125 0
0.459375 0.528906 0
0.39375 0.526563 0
0.521875 0.464844 0
0.456641 0.462793 0
0.391406 0.460742 0
0.51875 0.398438 0
0.453906 0.39668 0
0.389063 0.394922 0
0.39375 0.526563 0
0.328125 0.524219 0
0.2625 0.521875 0
0.391406 0.460742 0
0.326172 0.458691 0
0.260938 0.456641 0
0.389063 0.394922 0
0.324219 0.393164 0
0.259375 0.391406 0
0.51875 0.398438 0
0.453906 0.39668 0
0.389063 0.394922 0
0.515625 0.332031 0
0.451172 0.330566 0
0.386719 0.329102 0
0.5125 0.265625 0
0.448437 0.264453 0
0.384375 0.263281 0
0.389063 0.394922 0
0.324219 0.393164 0
0.259375 0.391406 0
0.386719 0.329102 0
0.322266 0.327637 0
0.257812 0.326172 0
0.384375 0.263281 0
0.320312 0.262109 0
0.25625 0.260937 0
0.2625 0.521875 0
0.196875 0.519531 0
0.13125 0.517187 0
0.260938 0.456641 0
0.195703 0.45459 0
0.130469 0.452539 0
0.259375 0.391406 0
0.194531 0.389648 0
0.129688 0.387891 0
0.13125 0.517187 0
0.065625 0.514844 0
0 0.5125 0
0.130469 0.452539 0
0.0652344 0.450488 0
0 0.448437 0
0.129688 0.387891 0
0.0648438 0.386133 0
0 0.384375 0
0.259375 0.391406 0
0.194531 0.389648 0
0.129688 0.387891 0
0.257812 0.326172 0
0.193359 0.324707 0
0.128906 0.323242 0
0.25625 0.260937 0
0.192187 0.259766 0
0.128125 0.258594 0
0.129688 0.387891 0
0.0648438 0.386133 0
0 0.384375 0
0.128906 0.323242 0
0.0644531 0.321777 0
0 0.320312 0
0.128125 0.258594 0
0.0640625 0.257422 0
0 0.25625 0
0.5125 0.265625 0
0.448437 0.264453 0
0.384375 0.263281 0
0.509375 0.199219 0
0.445703 0.19834 0
0.382031 0.197461 0
0.50625 0.132812 0
0.442969 0.132227 0
0.379688 0.131641 0
0.384375 0.263281 0
0.320312 0.262109 0
0.25625 0.260937 0
0.382031 0.197461 0
0.318359 0.196582 0
0.254687 0.195703 0
[...]
POINT_DATA 34560
VECTORS v double
1.23793 -0.269461 0
1.224 -0.24539 0
1.21179 -0.223781 0
1.20599 -0.253254 0
1.19018 -0.232415 0
1.17641 -0.212754 0
1.16935 -0.236674 0
1.1523 -0.218086 0
1.13689 -0.20033 0
1.21179 -0.223781 0
1.20113 -0.20311 0
1.19195 -0.184145 0
1.17641 -0.212754 0
1.16386 -0.194021 0
1.15318 -0.176477 0
1.13689 -0.20033 0
1.12296 -0.183337 0
1.11068 -0.167186 0
1.16935 -0.236674 0
1.1523 -0.218086 0
1.13689 -0.20033 0
1.12665 -0.217461 0
1.1084 -0.201297 0
1.09182 -0.18571 0
1.07772 -0.198848 0
1.05886 -0.184803 0
1.04151 -0.171091 0
1.13689 -0.20033 0
1.12296 -0.183337 0
1.11068 -0.167186 0
1.09182 -0.18571 0
1.0767 -0.170616 0
1.06323 -0.15615 0
1.04151 -0.171091 0
1.02564 -0.157691 0
1.01131 -0.144723 0
1.19195 -0.184145 0
1.18346 -0.166123 0
1.17622 -0.149264 0
1.15318 -0.176477 0
1.14302 -0.159681 0
1.13446 -0.143843 0
1.11068 -0.167186 0
1.0992 -0.151681 0
1.08924 -0.136892 0
1.17622 -0.149264 0
1.16912 -0.133131 0
1.163 -0.117733 0
1.13446 -0.143843 0
1.12598 -0.128529 0
1.11879 -0.113862 0
1.08924 -0.136892 0
1.07962 -0.122548 0
1.07131 -0.108702 0
1.11068 -0.167186 0
1.0992 -0.151681 0
1.08924 -0.136892 0
1.06323 -0.15615 0
1.05067 -0.142109 0
1.03962 -0.128619 0
1.01131 -0.144723 0
0.997984 -0.132046 0
0.986113 -0.119773 0
1.08924 -0.136892 0
1.07962 -0.122548 0
1.07131 -0.108702 0
1.03962 -0.128619 0
1.0291 -0.115424 0
1.0199 -0.102601 0
0.986113 -0.119773 0
0.974898 -0.1077 0
0.964993 -0.0958946 0
1.07772 -0.198848 0
1.05886 -0.184803 0
1.04151 -0.171091 0
1.02356 -0.17952 0
1.00433 -0.167448 0
0.986484 -0.155546 0
0.964674 -0.16061 0
0.945283 -0.150259 0
0.927139 -0.139965 0
1.04151 -0.171091 0
1.02564 -0.157691 0
1.01131 -0.144723 0
0.986484 -0.155546 0
0.97007 -0.143797 0
0.955104 -0.132341 0
0.927139 -0.139965 0
0.910367 -0.129734 0
0.894944 -0.119688 0
0.964674 -0.16061 0
0.945283 -0.150259 0
0.927139 -0.139965 0
0.901006 -0.140972 0
0.881579 -0.132257 0
0.863317 -0.12354 0
0.832672 -0.122023 0
0.813432 -0.114755 0
0.795243 -0.107441 0
0.927139 -0.139965 0
0.910367 -0.129734 0
0.894944 -0.119688 0
0.863317 -0.12354 0
0.846347 -0.114817 0
0.830653 -0.106201 0
0.795243 -0.107441 0
0.778269 -0.100082 0
0.76248 -0.0927772 0
1.01131 -0.144723 0
0.997984 -0.132046 0
0.986113 -0.119773 0
0.955104 -0.132341 0
0.941189 -0.121061 0
0.928673 -0.110069 0
0.894944 -0.119688 0
0.880601 -0.109738 0
0.867598 -0.0999827 0
0.986113 -0.119773 0
0.974898 -0.1077 0
0.964993 -0.0958946 0
0.928673 -0.110069 0
0.916923 -0.0991891 0
0.906463 -0.0884913 0
0.867598 -0.0999827 0
0.855441 -0.0902806 0
0.844552 -0.0806912 0
0.894944 -0.119688 0
0.880601 -0.109738 0
0.867598 -0.0999827 0
0.830653 -0.106201 0
0.816036 -0.0976106 0
0.802709 -0.0891437 0
0.76248 -0.0927772 0
0.747748 -0.0854601 0
0.734244 -0.0782162 0
0.867598 -0.0999827 0
0.855441 -0.0902806 0
0.844552 -0.0806912 0
0.802709 -0.0891437 0
0.790278 -0.0806741 0
0.779095 -0.0722601 0
0.734244 -0.0782162 0
0.721664 -0.0709385 0
0.710301 -0.0636765 0
1.163 -0.117733 0
1.15693 -0.102761 0
1.15164 -0.0881625 0
1.11879 -0.113862 0
1.11165 -0.0994854 0
1.10556 -0.0854517 0
1.07131 -0.108702 0
1.06326 -0.0950868 0
1.05634 -0.0817346 0
1.15164 -0.0881625 0
1.14626 -0.0737115 0
1.1415 -0.0593321 0
1.10556 -0.0854517 0
1.09941 -0.0714833 0
1.09412 -0.0575776 0
1.05634 -0.0817346 0
1.04955 -0.0684113 0
1.04371 -0.0551122 0
1.07131 -0.108702 0
1.06326 -0.0950868 0
1.05634 -0.0817346 0
1.0199 -0.102601 0
1.01115 -0.0899127 0
1.00356 -0.0774091 0
0.964993 -0.0958946 0
0.95568 -0.0841617 0
0.947553 -0.0725454 0
1.05634 -0.0817346 0
1.04955 -0.0684113 0
1.04371 -0.0551122 0
1.00356 -0.0774091 0
0.99628 -0.0648793 0
0.99001 -0.0523247 0
0.947553 -0.0725454 0
0.939881 -0.0608646 0
0.933269 -0.0491223 0
1.1415 -0.0593321 0
1.13682 -0.0448465 0
1.1327 -0.0301864 0
1.09412 -0.0575776 0
1.08897 -0.0435376 0
1.08458 -0.0293335 0
1.04371 -0.0551122 0
1.03817 -0.0416635 0
1.0335 -0.0280515 0
1.1327 -0.0301864 0
1.12859 -0.0152446 0
1.125 0 0
1.08458 -0.0293335 0
1.08028 -0.0148401 0
1.07666 0 0
1.0335 -0.0280515 0
1.02905 -0.0141657 0
1.02539 0 0
1.04371 -0.0551122 0
1.03817 -0.0416635 0
1.0335 -0.0280515 0
0.99001 -0.0523247 0
0.984196 -0.0395927 0
0.979324 -0.0266859 0
0.933269 -0.0491223 0
0.927235 -0.0371898 0
0.922207 -0.0250702 0
1.0335 -0.0280515 0
1.02905 -0.0141657 0
1.02539 0 0
0.979324 -0.0266859 0
0.974822 -0.0135013 0
0.971191 0 0
0.922207 -0.0250702 0
0.917664 -0.0126775 0
0.914062 0 0
0.964993 -0.0958946 0
0.95568 -0.0841617 0
0.947553 -0.0725454 0
0.906463 -0.0884913 0
0.896712 -0.0778034 0
0.888162 -0.0671716 0
0.844552 -0.0806912 0
0.834465 -0.0710689 0
0.825586 -0.0614542 0
0.947553 -0.0725454 0
0.939881 -0.0608646 0
0.933269 -0.0491223 0
0.888162 -0.0671716 0
0.880194 -0.0564359 0
0.873326 -0.0456044 0
0.825586 -0.0614542 0
0.817398 -0.0517094 0
0.810344 -0.0418401 0
0.844552 -0.0806912 0
0.834465 -0.0710689 0
0.825586 -0.0614542 0
0.779095 -0.0722601 0
0.768781 -0.0637721 0
0.759679 -0.0552501 0
0.710301 -0.0636765 0
0.699853 -0.0563184 0
0.690613 -0.0488976 0
0.825586 -0.0614542 0
0.817398 -0.0517094 0
0.810344 -0.0418401 0
0.759679 -0.0552501 0
0.751354 -0.0465698 0
0.744189 -0.0377398 0
0.690613 -0.0488976 0
0.682218 -0.0413051 0
0.675003 -0.0335459 0
0.933269 -0.0491223 0
0.927235 -0.0371898 0
0.922207 -0.0250702 0
0.873326 -0.0456044 0
0.867145 -0.034562 0
0.862026 -0.0233185 0
0.810344 -0.0418401 0
0.804068 -0.0317484 0
0.798902 -0.0214444 0
0.922207 -0.0250702 0
0.917664 -0.0126775 0
0.914062 0 0
0.862026 -0.0233185 0
0.857509 -0.0118009 0
0.854004 0 0
0.798902 -0.0214444 0
0.794428 -0.0108678 0
0.791016 0 0
0.810344 -0.0418401 0
0.804068 -0.0317484 0
0.798902 -0.0214444 0
0.744189 -0.0377398 0
0.737881 -0.0286723 0
0.732726 -0.0193824 0
0.675003 -0.0335459 0
0.66871 -0.0255435 0
0.663605 -0.0173105 0
0.798902 -0.0214444 0
0.794428 -0.0108678 0
0.791016 0 0
0.732726 -0.0193824 0
0.728351 -0.0098204 0
0.725098 0 0
0.663605 -0.0173105 0
0.659349 -0.00880656 0
0.65625 0 0
0.832672 -0.122023 0
0.813432 -0.114755 0
0.795243 -0.107441 0
0.75997 -0.102822 0
0.741005 -0.0968788 0
0.723019 -0.0908792 0
0.682665 -0.0842804 0
0.664149 -0.0795433 0
0.64653 -0.0747462 0
0.795243 -0.107441 0
0.778269 -0.100082 0
0.76248 -0.0927772 0
0.723019 -0.0908792 0
0.706158 -0.0848193 0
0.690412 -0.0787887 0
0.64653 -0.0747462 0
0.629958 -0.0698873 0
0.614426 -0.0650434 0
0.682665 -0.0842804 0
0.664149 -0.0795433 0
0.64653 -0.0747462 0
0.600531 -0.0657516 0
0.582598 -0.0621261 0
0.56552 -0.0584546 0
0.512303 -0.0481133 0
0.495282 -0.0455228 0
0.479055 -0.0428954 0
0.64653 -0.0747462 0
0.629958 -0.0698873 0
0.614426 -0.0650434 0
0.56552 -0.0584546 0
0.549407 -0.0547287 0
0.534277 -0.0510148 0
0.479055 -0.0428954 0
0.463716 -0.0402218 0
0.449292 -0.037559 0
0.76248 -0.0927772 0
0.747748 -0.0854601 0
0.734244 -0.0782162 0
0.690412 -0.0787887 0
0.675685 -0.0727258 0
0.662133 -0.0667058 0
0.614426 -0.0650434 0
0.599868 -0.060161 0
0.586421 -0.0553045 0
0.734244 -0.0782162 0
0.721664 -0.0709385 0
0.710301 -0.0636765 0
0.662133 -0.0667058 0
0.649513 -0.0606325 0
0.638078 -0.054549 0
0.586421 -0.0553045 0
0.573896 -0.0503901 0
0.562512 -0.0454523 0
0.614426 -0.0650434 0
0.599868 -0.060161 0
0.586421 -0.0553045 0
0.534277 -0.0510148 0
0.520064 -0.0472644 0
0.506901 -0.0435335 0
0.449292 -0.037559 0
0.435718 -0.034865 0
0.423117 -0.0321873 0
0.586421 -0.0553045 0
0.573896 -0.0503901 0
0.562512 -0.0454523 0
0.506901 -0.0435335 0
0.494628 -0.0397488 0
0.483445 -0.0359387 0
0.423117 -0.0321873 0
0.411354 -0.0294653 0
0.400608 -0.0267237 0
0.512303 -0.0481133 0
0.495282 -0.0455228 0
0.479055 -0.0428954 0
0.41597 -0.0312165 0
0.400352 -0.0295558 0
0.385478 -0.0278754 0
0.306026 -0.0162243 0
0.292952 -0.0153945 0
0.280487 -0.0145568 0
0.479055 -0.0428954 0
0.463716 -0.0402218 0
0.449292 -0.037559 0
0.385478 -0.0278754 0
0.371389 -0.0261597 0
0.358142 -0.0244559 0
0.280487 -0.0145568 0
0.268665 -0.0136919 0
0.257542 -0.012836 0
0.306026 -0.0162243 0
0.292952 -0.0153945 0
0.280487 -0.0145568 0
0.172916 -0.0047814 0
0.164425 -0.00452596 0
0.156357 -0.00427899 0
0 0 0
0 0 0
0 0 0
0.280487 -0.0145568 0
0.268665 -0.0136919 0
0.257542 -0.012836 0
0.156357 -0.00427899 0
0.148667 -0.00401874 0
0.141457 -0.00377266 0
0 0 0
0 0 0
0 0 0
0.449292 -0.037559 0
0.435718 -0.034865 0
0.423117 -0.0321873 0
0.358142 -0.0244559 0
0.345652 -0.0227272 0
0.334047 -0.0210131 0
0.257542 -0.012836 0
0.24704 -0.0119576 0
0.237273 -0.0110897 0
0.423117 -0.0321873 0
0.411354 -0.0294653 0
0.400608 -0.0267237 0
0.334047 -0.0210131 0
0.323193 -0.0192646 0
0.313263 -0.0175062 0
0.237273 -0.0110897 0
0.228123 -0.0101978 0
0.21974 -0.00930499 0
0.257542 -0.012836 0
0.24704 -0.0119576 0
0.237273 -0.0110897 0
0.141457 -0.00377266 0
0.134616 -0.00350895 0
0.128279 -0.00325799 0
0 0 0
0 0 0
0 0 0
0.237273 -0.0110897 0
0.228123 -0.0101978 0
0.21974 -0.00930499 0
0.128279 -0.00325799 0
0.122309 -0.00298933 0
0.116869 -0.00272987 0
0 0 0
0 0 0
0 0 0
0.710301 -0.0636765 0
0.699853 -0.0563184 0
0.690613 -0.0488976 0
0.638078 -0.054549 0
0.627584 -0.0483548 0
0.61829 -0.0420792 0
0.562512 -0.0454523 0
0.552074 -0.040403 0
0.542814 -0.0352662 0
0.690613 -0.0488976 0
0.682218 -0.0413051 0
0.675003 -0.0335459 0
0.61829 -0.0420792 0
0.609891 -0.0356227 0
0.602687 -0.0289887 0
0.542814 -0.0352662 0
0.53448 -0.0299529 0
0.527345 -0.0244607 0
0.562512 -0.0454523 0
0.552074 -0.040403 0
0.542814 -0.0352662 0
0.483445 -0.0359387 0
0.473186 -0.0320251 0
0.46407 -0.0280292 0
0.400608 -0.0267237 0
0.390734 -0.0238975 0
0.381941 -0.0210032 0
0.542814 -0.0352662 0
0.53448 -0.0299529 0
0.527345 -0.0244607 0
0.46407 -0.0280292 0
0.455887 -0.023871 0
0.448893 -0.0195438 0
0.381941 -0.0210032 0
0.374057 -0.0179722 0
0.367323 -0.0147956 0
0.675003 -0.0335459 0
0.66871 -0.0255435 0
0.663605 -0.0173105 0
0.602687 -0.0289887 0
0.596457 -0.0221076 0
0.591446 -0.0149942 0
0.527345 -0.0244607 0
0.521219 -0.0187274 0
0.516339 -0.0127632 0
0.663605 -0.0173105 0
0.659349 -0.00880656 0
0.65625 0 0
0.591446 -0.0149942 0
0.587355 -0.00761351 0
0.584473 0 0
0.516339 -0.0127632 0
0.512434 -0.00653966 0
0.509766 0 0
0.527345 -0.0244607 0
0.521219 -0.0187274 0
0.516339 -0.0127632 0
0.448893 -0.0195438 0
0.442924 -0.0149891 0
0.438211 -0.0102226 0
0.367323 -0.0147956 0
0.361599 -0.0114206 0
0.357116 -0.00785014 0
0.516339 -0.0127632 0
0.512434 -0.00653966 0
0.509766 0 0
0.438211 -0.0102226 0
0.434527 -0.00521377 0
0.432129 0 0
0.357116 -0.00785014 0
0.353691 -0.0040716 0
0.351562 0 0
0.400608 -0.0267237 0
0.390734 -0.0238975 0
0.381941 -0.0210032 0
0.313263 -0.0175062 0
0.304114 -0.0156857 0
0.295954 -0.0138192 0
0.21974 -0.00930499 0
0.212 -0.00837556 0
0.205082 -0.00742364 0
0.381941 -0.0210032 0
0.374057 -0.0179722 0
0.367323 -0.0147956 0
0.295954 -0.0138192 0
0.288628 -0.0118522 0
0.282379 -0.00977882 0
0.205082 -0.00742364 0
0.198859 -0.00641376 0
0.193549 -0.00534942 0
0.21974 -0.00930499 0
0.212 -0.00837556 0
0.205082 -0.00742364 0
0.116869 -0.00272987 0
0.111808 -0.00245239 0
0.107322 -0.00217382 0
0 0 0
0 0 0
0 0 0
0.205082 -0.00742364 0
0.198859 -0.00641376 0
0.193549 -0.00534942 0
0.107322 -0.00217382 0
0.103243 -0.00186675 0
0.0997903 -0.00155068 0
0 0 0
0 0 0
0 0 0
0.367323 -0.0147956 0
0.361599 -0.0114206 0
0.357116 -0.00785014 0
0.282379 -0.00977882 0
0.277073 -0.00754873 0
0.272962 -0.00516749 0
0.193549 -0.00534942 0
0.189051 -0.00419564 0
0.1856 -0.0029283 0
0.357116 -0.00785014 0
0.353691 -0.0040716 0
0.351562 0 0
0.272962 -0.00516749 0
0.269876 -0.00261447 0
0.268066 0 0
0.1856 -0.0029283 0
0.183057 -0.00155447 0
0.181641 0 0
0.193549 -0.00534942 0
0.189051 -0.00419564 0
0.1856 -0.0029283 0
0.0997903 -0.00155068 0
0.0968295 -0.00121079 0
0.0946582 -0.000822494 0
0 0 0
0 0 0
0 0 0
0.1856 -0.0029283 0
0.183057 -0.00155447 0
0.181641 0 0
0.0946582 -0.000822494 0
0.0930357 -0.000350158 0
0.0922852 0 0
0 0 0
0 0 0
0 0 0
1.70101 -0.329407 0
1.66625 -0.358451 0
1.62728 -0.382115 0
1.63057 -0.284638 0
1.59981 -0.311333 0
1.5654 -0.333232 0
1.55644 -0.247111 0
1.53066 -0.271347 0
1.50141 -0.291653 0
1.62728 -0.382115 0
1.58766 -0.398938 0
1.54539 -0.409843 0
1.5654 -0.333232 0
1.53037 -0.349883 0
1.49295 -0.361375 0
1.50141 -0.291653 0
1.47149 -0.307697 0
1.43925 -0.319365 0
1.55644 -0.247111 0
1.53066 -0.271347 0
1.50141 -0.291653 0
1.48685 -0.216876 0
1.46443 -0.237485 0
1.43901 -0.254995 0
1.41367 -0.187444 0
1.39328 -0.205675 0
1.37024 -0.221345 0
1.50141 -0.291653 0
1.47149 -0.307697 0
1.43925 -0.319365 0
1.43901 -0.254995 0
1.41267 -0.269051 0
1.38418 -0.279615 0
1.37024 -0.221345 0
1.3464 -0.234204 0
1.32067 -0.244166 0
1.54539 -0.409843 0
1.50606 -0.414651 0
1.4659 -0.413823 0
1.49295 -0.361375 0
1.45789 -0.367725 0
1.42194 -0.369579 0
1.43925 -0.319365 0
1.40863 -0.326778 0
1.377 -0.330154 0
1.4659 -0.413823 0
1.43029 -0.408764 0
1.39521 -0.399551 0
1.42194 -0.369579 0
1.38961 -0.367373 0
1.35762 -0.361603 0
1.377 -0.330154 0
1.34798 -0.329908 0
1.31902 -0.326364 0
1.43925 -0.319365 0
1.40863 -0.326778 0
1.377 -0.330154 0
1.38418 -0.279615 0
1.35662 -0.286692 0
1.32794 -0.290469 0
1.32067 -0.244166 0
1.29558 -0.25123 0
1.26951 -0.255529 0
1.377 -0.330154 0
1.34798 -0.329908 0
1.31902 -0.326364 0
1.32794 -0.290469 0
1.30115 -0.291262 0
1.27419 -0.289288 0
1.26951 -0.255529 0
1.24487 -0.257256 0
1.22004 -0.256582 0
1.41367 -0.187444 0
1.39328 -0.205675 0
1.37024 -0.221345 0
1.33844 -0.162692 0
1.32008 -0.178752 0
1.29937 -0.192665 0
1.26329 -0.139149 0
1.24651 -0.153328 0
1.22755 -0.165734 0
1.37024 -0.221345 0
1.3464 -0.234204 0
1.32067 -0.244166 0
1.29937 -0.192665 0
1.27789 -0.204199 0
1.25466 -0.213304 0
1.22755 -0.165734 0
1.20784 -0.176151 0
1.18652 -0.184527 0
1.26329 -0.139149 0
1.24651 -0.153328 0
1.22755 -0.165734 0
1.18683 -0.118022 0
1.17121 -0.130263 0
1.15362 -0.141037 0
1.10818 -0.0978346 0
1.09337 -0.108448 0
1.07674 -0.117864 0
1.22755 -0.165734 0
1.20784 -0.176151 0
1.18652 -0.184527 0
1.15362 -0.141037 0
1.13528 -0.150166 0
1.11544 -0.157602 0
1.07674 -0.117864 0
1.05943 -0.125925 0
1.04073 -0.132582 0
1.32067 -0.244166 0
1.29558 -0.25123 0
1.26951 -0.255529 0
1.25466 -0.213304 0
1.23187 -0.219958 0
1.20808 -0.224255 0
1.18652 -0.184527 0
1.16541 -0.190824 0
1.14335 -0.195114 0
1.26951 -0.255529 0
1.24487 -0.257256 0
1.22004 -0.256582 0
1.20808 -0.224255 0
1.18537 -0.226344 0
1.16236 -0.226348 0
1.14335 -0.195114 0
1.12207 -0.1975 0
1.10045 -0.198082 0
1.18652 -0.184527 0
1.16541 -0.190824 0
1.14335 -0.195114 0
1.11544 -0.157602 0
1.09568 -0.163316 0
1.075 -0.167348 0
1.04073 -0.132582 0
1.02203 -0.137799 0
1.00245 -0.141606 0
1.14335 -0.195114 0
1.12207 -0.1975 0
1.10045 -0.198082 0
1.075 -0.167348 0
1.05488 -0.169786 0
1.03439 -0.170685 0
1.00245 -0.141606 0
0.983299 -0.144058 0
0.963766 -0.145201 0
1.39521 -0.399551 0
1.3655 -0.38784 0
1.3375 -0.373069 0
1.35762 -0.361603 0
1.33015 -0.352918 0
1.30402 -0.341937 0
1.31902 -0.326364 0
1.29349 -0.320199 0
1.26894 -0.311738 0
1.3375 -0.373069 0
1.3139 -0.357253 0
1.29247 -0.340026 0
1.30402 -0.341937 0
1.28161 -0.329357 0
1.26106 -0.315323 0
1.26894 -0.311738 0
1.24733 -0.301557 0
1.22716 -0.289896 0
1.31902 -0.326364 0
1.29349 -0.320199 0
1.26894 -0.311738 0
1.27419 -0.289288 0
1.24996 -0.285025 0
1.2264 -0.278705 0
1.22004 -0.256582 0
1.1974 -0.253844 0
1.17531 -0.24928 0
1.26894 -0.311738 0
1.24733 -0.301557 0
1.22716 -0.289896 0
1.2264 -0.278705 0
1.20532 -0.270839 0
1.18545 -0.26161 0
1.17531 -0.24928 0
1.15527 -0.243253 0
1.13624 -0.235927 0
1.29247 -0.340026 0
1.27504 -0.32253 0
1.26023 -0.304303 0
1.26106 -0.315323 0
1.24404 -0.30041 0
1.2292 -0.284916 0
1.22716 -0.289896 0
1.20991 -0.277312 0
1.19448 -0.263999 0
1.26023 -0.304303 0
1.24804 -0.286589 0
1.23793 -0.269461 0
1.2292 -0.284916 0
1.21656 -0.269202 0
1.20599 -0.253254 0
1.19448 -0.263999 0
1.18101 -0.25035 0
1.16935 -0.236674 0
1.22716 -0.289896 0
1.20991 -0.277312 0
1.19448 -0.263999 0
1.18545 -0.26161 0
1.16823 -0.251457 0
1.15261 -0.240545 0
1.13624 -0.235927 0
1.11946 -0.227641 0
1.10405 -0.218568 0
1.19448 -0.263999 0
1.18101 -0.25035 0
1.16935 -0.236674 0
1.15261 -0.240545 0
1.13881 -0.229181 0
1.12665 -0.217461 0
1.10405 -0.218568 0
1.09018 -0.208921 0
1.07772 -0.198848 0
1.22004 -0.256582 0
1.1974 -0.253844 0
1.17531 -0.24928 0
1.16236 -0.226348 0
1.14108 -0.224552 0
1.12017 -0.221138 0
1.10045 -0.198082 0
1.08019 -0.197076 0
1.06017 -0.194643 0
1.17531 -0.24928 0
1.15527 -0.243253 0
1.13624 -0.235927 0
1.12017 -0.221138 0
1.10091 -0.21641 0
1.08243 -0.210483 0
1.06017 -0.194643 0
1.04153 -0.191018 0
1.02353 -0.186313 0
1.10045 -0.198082 0
1.08019 -0.197076 0
1.06017 -0.194643 0
1.03439 -0.170685 0
1.01499 -0.170231 0
0.995743 -0.168535 0
0.963766 -0.145201 0
0.945098 -0.145174 0
0.926524 -0.144074 0
1.06017 -0.194643 0
1.04153 -0.191018 0
1.02353 -0.186313 0
0.995743 -0.168535 0
0.977633 -0.165797 0
0.960055 -0.162098 0
0.926524 -0.144074 0
0.908889 -0.142056 0
0.891689 -0.139191 0
1.13624 -0.235927 0
1.11946 -0.227641 0
1.10405 -0.218568 0
1.08243 -0.210483 0
1.06586 -0.203664 0
1.05043 -0.19612 0
1.02353 -0.186313 0
1.00717 -0.180781 0
0.991799 -0.174568 0
1.10405 -0.218568 0
1.09018 -0.208921 0
1.07772 -0.198848 0
1.05043 -0.19612 0
1.03637 -0.188051 0
1.02356 -0.17952 0
0.991799 -0.174568 0
0.977679 -0.16782 0
0.964674 -0.16061 0
1.02353 -0.186313 0
1.00717 -0.180781 0
0.991799 -0.174568 0
0.960055 -0.162098 0
0.943864 -0.157649 0
0.928527 -0.152567 0
0.891689 -0.139191 0
0.875668 -0.135652 0
0.860388 -0.131546 0
0.991799 -0.174568 0
0.977679 -0.16782 0
0.964674 -0.16061 0
0.928527 -0.152567 0
0.91428 -0.146985 0
0.901006 -0.140972 0
0.860388 -0.131546 0
0.846088 -0.126985 0
0.832672 -0.122023 0
1.10818 -0.0978346 0
1.09337 -0.108448 0
1.07674 -0.117864 0
1.02786 -0.079689 0
1.01367 -0.0887075 0
0.997812 -0.096746 0
0.944648 -0.0619512 0
0.930943 -0.0695635 0
0.91564 -0.0763873 0
1.07674 -0.117864 0
1.05943 -0.125925 0
1.04073 -0.132582 0
0.997812 -0.096746 0
0.981294 -0.103666 0
0.963482 -0.109425 0
0.91564 -0.0763873 0
0.899712 -0.0823054 0
0.88255 -0.0872789 0
0.944648 -0.0619512 0
0.930943 -0.0695635 0
0.91564 -0.0763873 0
0.85599 -0.0455996 0
0.84294 -0.0518038 0
0.828337 -0.0573911 0
0.756463 -0.0302046 0
0.744583 -0.0350458 0
0.731089 -0.0394369 0
0.91564 -0.0763873 0
0.899712 -0.0823054 0
0.88255 -0.0872789 0
0.828337 -0.0573911 0
0.813083 -0.0622619 0
0.796613 -0.0663864 0
0.731089 -0.0394369 0
0.716896 -0.0432992 0
0.701453 -0.046603 0
1.04073 -0.132582 0
1.02203 -0.137799 0
1.00245 -0.141606 0
0.963482 -0.109425 0
0.945588 -0.113991 0
0.926859 -0.117384 0
0.88255 -0.0872789 0
0.865254 -0.0912773 0
0.847152 -0.094313 0
1.00245 -0.141606 0
0.983299 -0.144058 0
0.963766 -0.145201 0
0.926859 -0.117384 0
0.908427 -0.119649 0
0.889604 -0.120817 0
0.847152 -0.094313 0
0.829266 -0.0964195 0
0.81099 -0.0976181 0
0.88255 -0.0872789 0
0.865254 -0.0912773 0
0.847152 -0.094313 0
0.796613 -0.0663864 0
0.779944 -0.0697378 0
0.762465 -0.0723216 0
0.701453 -0.046603 0
0.685724 -0.0493268 0
0.669153 -0.0514687 0
0.847152 -0.094313 0
0.829266 -0.0964195 0
0.81099 -0.0976181 0
0.762465 -0.0723216 0
0.745123 -0.0741655 0
0.727372 -0.0752801 0
0.669153 -0.0514687 0
0.652625 -0.053051 0
0.635656 -0.0540755 0
0.756463 -0.0302046 0
0.744583 -0.0350458 0
0.731089 -0.0394369 0
0.636906 -0.0172112 0
0.627252 -0.0206104 0
0.615905 -0.0237176 0
0.482843 -0.00680636 0
0.476619 -0.00874698 0
0.4687 -0.0105427 0
0.731089 -0.0394369 0
0.716896 -0.0432992 0
0.701453 -0.046603 0
0.615905 -0.0237176 0
0.603745 -0.0264725 0
0.590245 -0.0288508 0
0.4687 -0.0105427 0
0.459891 -0.01216 0
0.449724 -0.013577 0
0.482843 -0.00680636 0
0.476619 -0.00874698 0
0.4687 -0.0105427 0
0.276841 -0.00164182 0
0.274634 -0.00225878 0
0.27103 -0.00283305 0
0 0 0
0 0 0
0 0 0
0.4687 -0.0105427 0
0.459891 -0.01216 0
0.449724 -0.013577 0
0.27103 -0.00283305 0
0.266806 -0.00335374 0
0.261404 -0.00380489 0
0 0 0
0 0 0
0 0 0
0.701453 -0.046603 0
0.685724 -0.0493268 0
0.669153 -0.0514687 0
0.590245 -0.0288508 0
0.576326 -0.0308369 0
0.561475 -0.0324226 0
0.449724 -0.013577 0
0.439004 -0.0147899 0
0.427306 -0.0157816 0
0.669153 -0.0514687 0