# vtk DataFile Version 3.0
#This file was generated by the deal.II library on 2025/1/8 at 8:03:46
ASCII
DATASET UNSTRUCTURED_GRID

POINTS 34560 double
1.1 1.1 0
1.03125 1.09531 0
0.9625 1.09063 0
1.09375 1.03125 0
1.02539 1.02686 0
0.957031 1.02246 0
1.0875 0.9625 0
1.01953 0.958398 0
0.951563 0.954297 0
0.9625 1.09063 0
0.89375 1.08594 0
0.825 1.08125 0
0.957031 1.02246 0
0.888672 1.01807 0
0.820312 1.01367 0
0.951563 0.954297 0
0.883594 0.950195 0
0.815625 0.946094 0
1.0875 0.9625 0
1.01953 0.958398 0
0.951563 0.954297 0
1.08125 0.89375 0
1.01367 0.889941 0
0.946094 0.886133 0
1.075 0.825 0
1.00781 0.821484 0
0.940625 0.817969 0
0.951563 0.954297 0
0.883594 0.950195 0
0.815625 0.946094 0
0.946094 0.886133 0
0.878516 0.882324 0
0.810938 0.878516 0
0.940625 0.817969 0
0.873438 0.814453 0
0.80625 0.810937 0
0.825 1.08125 0
0.75625 1.07656 0
0.6875 1.07187 0
0.820312 1.01367 0
0.751953 1.00928 0
0.683594 1.00488 0
0.815625 0.946094 0
0.747656 0.941992 0
0.679688 0.937891 0
0.6875 1.07187 0
0.61875 1.06719 0
0.55 1.0625 0
0.683594 1.00488 0
0.615234 1.00049 0
0.546875 0.996094 0
0.679688 0.937891 0
0.611719 0.933789 0
0.54375 0.929688 0
0.815625 0.946094 0
0.747656 0.941992 0
0.679688 0.937891 0
0.810938 0.878516 0
0.743359 0.874707 0
0.675781 0.870898 0
0.80625 0.810937 0
0.739063 0.807422 0
0.671875 0.803906 0
0.679688 0.937891 0
0.611719 0.933789 0
0.54375 0.929688 0
0.675781 0.870898 0
0.608203 0.86709 0
0.540625 0.863281 0
0.671875 0.803906 0
0.604688 0.800391 0
0.5375 0.796875 0
1.075 0.825 0
1.00781 0.821484 0
0.940625 0.817969 0
1.06875 0.75625 0
1.00195 0.753027 0
0.935156 0.749805 0
1.0625 0.6875 0
0.996094 0.68457 0
0.929688 0.681641 0
0.940625 0.817969 0
0.873438 0.814453 0
0.80625 0.810937 0
0.935156 0.749805 0
0.868359 0.746582 0
0.801563 0.743359 0
0.929688 0.681641 0
0.863281 0.678711 0
0.796875 0.675781 0
1.0625 0.6875 0
0.996094 0.68457 0
0.929688 0.681641 0
1.05625 0.61875 0
0.990234 0.616113 0
0.924219 0.613477 0
1.05 0.55 0
0.984375 0.547656 0
0.91875 0.545313 0
0.929688 0.681641 0
0.863281 0.678711 0
0.796875 0.675781 0
0.924219 0.613477 0
0.858203 0.61084 0
0.792188 0.608203 0
0.91875 0.545313 0
0.853125 0.542969 0
0.7875 0.540625 0
0.80625 0.810937 0
0.739063 0.807422 0
0.671875 0.803906 0
0.801563 0.743359 0
0.734766 0.740137 0
0.667969 0.736914 0
0.796875 0.675781 0
0.730469 0.672852 0
0.664062 0.669922 0
0.671875 0.803906 0
0.604688 0.800391 0
0.5375 0.796875 0
0.667969 0.736914 0
0.601172 0.733691 0
0.534375 0.730469 0
0.664062 0.669922 0
0.597656 0.666992 0
0.53125 0.664062 0
0.796875 0.675781 0
0.730469 0.672852 0
0.664062 0.669922 0
0.792188 0.608203 0
0.726172 0.605566 0
0.660156 0.60293 0
0.7875 0.540625 0
0.721875 0.538281 0
0.65625 0.535937 0
0.664062 0.669922 0
0.597656 0.666992 0
0.53125 0.664062 0
0.660156 0.60293 0
0.594141 0.600293 0
0.528125 0.597656 0
0.65625 0.535937 0
0.590625 0.533594 0
0.525 0.53125 0
0.55 1.0625 0
0.48125 1.05781 0
0.4125 1.05313 0
0.546875 0.996094 0
0.478516 0.991699 0
0.410156 0.987305 0
0.54375 0.929688 0
0.475781 0.925586 0
0.407813 0.921484 0
0.4125 1.05313 0
0.34375 1.04844 0
0.275 1.04375 0
0.410156 0.987305 0
0.341797 0.98291 0
0.273438 0.978516 0
0.407813 0.921484 0
0.339844 0.917383 0
0.271875 0.913281 0
0.54375 0.929688 0
0.475781 0.925586 0
0.407813 0.921484 0
0.540625 0.863281 0
0.473047 0.859473 0
0.405469 0.855664 0
0.5375 0.796875 0
0.470313 0.793359 0
0.403125 0.789844 0
0.407813 0.921484 0
0.339844 0.917383 0
0.271875 0.913281 0
0.405469 0.855664 0
0.337891 0.851855 0
0.270313 0.848047 0
0.403125 0.789844 0
0.335938 0.786328 0
0.26875 0.782813 0
0.275 1.04375 0
0.20625 1.03906 0
0.1375 1.03437 0
0.273438 0.978516 0
0.205078 0.974121 0
0.136719 0.969727 0
0.271875 0.913281 0
0.203906 0.90918 0
0.135938 0.905078 0
0.1375 1.03437 0
0.06875 1.02969 0
0 1.025 0
0.136719 0.969727 0
0.0683594 0.965332 0
0 0.960937 0
0.135938 0.905078 0
0.0679688 0.900977 0
0 0.896875 0
0.271875 0.913281 0
0.203906 0.90918 0
0.135938 0.905078 0
0.270313 0.848047 0
0.202734 0.844238 0
0.135156 0.84043 0
0.26875 0.782813 0
0.201563 0.779297 0
0.134375 0.775781 0
0.135938 0.905078 0
0.0679688 0.900977 0
0 0.896875 0
0.135156 0.84043 0
0.0675781 0.836621 0
0 0.832812 0
0.134375 0.775781 0
0.0671875 0.772266 0
0 0.76875 0
0.5375 0.796875 0
0.470313 0.793359 0
0.403125 0.789844 0
0.534375 0.730469 0
0.467578 0.727246 0
0.400781 0.724023 0
0.53125 0.664062 0
0.464844 0.661133 0
0.398438 0.658203 0
0.403125 0.789844 0
0.335938 0.786328 0
0.26875 0.782813 0
0.400781 0.724023 0
0.333984 0.720801 0
0.267188 0.717578 0
0.398438 0.658203 0
0.332031 0.655273 0
0.265625 0.652344 0
0.53125 0.664062 0
0.464844 0.661133 0
0.398438 0.658203 0
0.528125 0.597656 0
0.462109 0.59502 0
0.396094 0.592383 0
0.525 0.53125 0
0.459375 0.528906 0
0.39375 0.526563 0
0.398438 0.658203 0
0.332031 0.655273 0
0.265625 0.652344 0
0.396094 0.592383 0
0.330078 0.589746 0
0.264062 0.587109 0
0.39375 0.526563 0
0.328125 0.524219 0
0.2625 0.521875 0
0.26875 0.782813 0
0.201563 0.779297 0
0.134375 0.775781 0
0.267188 0.717578 0
0.200391 0.714355 0
0.133594 0.711133 0
0.265625 0.652344 0
0.199219 0.649414 0
0.132812 0.646484 0
0.134375 0.775781 0
0.0671875 0.772266 0
0 0.76875 0
0.133594 0.711133 0
0.0667969 0.70791 0
0 0.704687 0
0.132812 0.646484 0
0.0664062 0.643555 0
0 0.640625 0
0.265625 0.652344 0
0.199219 0.649414 0
0.132812 0.646484 0
0.264062 0.587109 0
0.198047 0.584473 0
0.132031 0.581836 0
0.2625 0.521875 0
0.196875 0.519531 0
0.13125 0.517187 0
0.132812 0.646484 0
0.0664062 0.643555 0
0 0.640625 0
0.132031 0.581836 0
0.0660156 0.579199 0
0 0.576562 0
0.13125 0.517187 0
0.065625 0.514844 0
0 0.5125 0
1.05 0.55 0
0.984375 0.547656 0
0.91875 0.545313 0
1.04375 0.48125 0
0.978516 0.479199 0
0.913281 0.477148 0
1.0375 0.4125 0
0.972656 0.410742 0
0.907813 0.408984 0
0.91875 0.545313 0
0.853125 0.542969 0
0.7875 0.540625 0
0.913281 0.477148 0
0.848047 0.475098 0
0.782813 0.473047 0
0.907813 0.408984 0
0.842969 0.407227 0
0.778125 0.405469 0
1.0375 0.4125 0
0.972656 0.410742 0
0.907813 0.408984 0
1.03125 0.34375 0
0.966797 0.342285 0
0.902344 0.34082 0
1.025 0.275 0
0.960937 0.273828 0
0.896875 0.272656 0
0.907813 0.408984 0
0.842969 0.407227 0
0.778125 0.405469 0
0.902344 0.34082 0
0.837891 0.339355 0
0.773438 0.337891 0
0.896875 0.272656 0
0.832812 0.271484 0
0.76875 0.270313 0
0.7875 0.540625 0
0.721875 0.538281 0
0.65625 0.535937 0
0.782813 0.473047 0
0.717578 0.470996 0
0.652344 0.468945 0
0.778125 0.405469 0
0.713281 0.403711 0
0.648438 0.401953 0
0.65625 0.535937 0
0.590625 0.533594 0
0.525 0.53125 0
0.652344 0.468945 0
0.587109 0.466895 0
0.521875 0.464844 0
0.648438 0.401953 0
0.583594 0.400195 0
0.51875 0.398438 0
0.778125 0.405469 0
0.713281 0.403711 0
0.648438 0.401953 0
0.773438 0.337891 0
0.708984 0.336426 0
0.644531 0.334961 0
0.76875 0.270313 0
0.704687 0.269141 0
0.640625 0.267969 0
0.648438 0.401953 0
0.583594 0.400195 0
0.51875 0.398438 0
0.644531 0.334961 0
0.580078 0.333496 0
0.515625 0.332031 0
0.640625 0.267969 0
0.576562 0.266797 0
0.5125 0.265625 0
1.025 0.275 0
0.960937 0.273828 0
0.896875 0.272656 0
1.01875 0.20625 0
0.955078 0.205371 0
0.891406 0.204492 0
1.0125 0.1375 0
0.949219 0.136914 0
0.885937 0.136328 0
0.896875 0.272656 0
0.832812 0.271484 0
0.76875 0.270313 0
0.891406 0.204492 0
0.827734 0.203613 0
0.764062 0.202734 0
0.885937 0.136328 0
0.822656 0.135742 0
0.759375 0.135156 0
1.0125 0.1375 0
0.949219 0.136914 0
0.885937 0.136328 0
1.00625 0.06875 0
0.943359 0.068457 0
0.880469 0.0681641 0
1 0 0
0.9375 0 0
0.875 0 0
0.885937 0.136328 0
0.822656 0.135742 0
0.759375 0.135156 0
0.880469 0.0681641 0
0.817578 0.0678711 0
0.754687 0.0675781 0
0.875 0 0
0.8125 0 0
0.75 0 0
0.76875 0.270313 0
0.704687 0.269141 0
0.640625 0.267969 0
0.764062 0.202734 0
0.700391 0.201855 0
0.636719 0.200977 0
0.759375 0.135156 0
0.696094 0.13457 0
0.632812 0.133984 0
0.640625 0.267969 0
0.576562 0.266797 0
0.5125 0.265625 0
0.636719 0.200977 0
0.573047 0.200098 0
0.509375 0.199219 0
0.632812 0.133984 0
0.569531 0.133398 0
0.50625 0.132812 0
0.759375 0.135156 0
0.696094 0.13457 0
0.632812 0.133984 0
0.754687 0.0675781 0
0.691797 0.0672852 0
0.628906 0.0669922 0
0.75 0 0
0.6875 0 0
0.625 0 0
0.632812 0.133984 0
0.569531 0.133398 0
0.50625 0.132812 0
0.628906 0.0669922 0
0.566016 0.0666992 0
0.503125 0.0664062 0
0.625 0 0
0.5625 0 0
0.5 0 0
0.525 0.53125 0
0.459375 0.528906 0
0.39375 0.526563 0
0.521875 0.464844 0
0.456641 0.462793 0
0.391406 0.460742 0
0.51875 0.398438 0
0.453906 0.39668 0
0.389063 0.394922 0
0.39375 0.526563 0
0.328125 0.524219 0
0.2625 0.521875 0
0.391406 0.460742 0
0.326172 0.458691 0
0.260938 0.456641 0
0.389063 0.394922 0
0.324219 0.393164 0
0.259375 0.391406 0
0.51875 0.398438 0
0.453906 0.39668 0
0.389063 0.394922 0
0.515625 0.332031 0
0.451172 0.330566 0
0.386719 0.329102 0
0.5125 0.265625 0
0.448437 0.264453 0
0.384375 0.263281 0
0.389063 0.394922 0
0.324219 0.393164 0
0.259375 0.391406 0
0.386719 0.329102 0
0.322266 0.327637 0
0.257812 0.326172 0
0.384375 0.263281 0
0.320312 0.262109 0
0.25625 0.260937 0
0.2625 0.521875 0
0.196875 0.519531 0
0.13125 0.517187 0
0.260938 0.456641 0
0.195703 0.45459 0
0.130469 0.452539 0
0.259375 0.391406 0
0.194531 0.389648 0
0.129688 0.387891 0
0.13125 0.517187 0
0.065625 0.514844 0
0 0.5125 0
0.130469 0.452539 0
0.0652344 0.450488 0
0 0.448437 0
0.129688 0.387891 0
0.0648438 0.386133 0
0 0.384375 0
0.259375 0.391406 0
0.194531 0.389648 0
0.129688 0.387891 0
0.257812 0.326172 0
0.193359 0.324707 0
0.128906 0.323242 0
0.25625 0.260937 0
0.192187 0.259766 0
0.128125 0.258594 0
0.129688 0.387891 0
0.0648438 0.386133 0
0 0.384375 0
0.128906 0.323242 0
0.0644531 0.321777 0
0 0.320312 0
0.128125 0.258594 0
0.0640625 0.257422 0
0 0.25625 0
0.5125 0.265625 0
0.448437 0.264453 0
0.384375 0.263281 0
0.509375 0.199219 0
0.445703 0.19834 0
0.382031 0.197461 0
0.50625 0.132812 0
0.442969 0.132227 0
0.379688 0.131641 0
0.384375 0.263281 0
0.320312 0.262109 0
0.25625 0.260937 0
0.382031 0.197461 0
0.318359 0.196582 0
0.254687 0.195703 0
[...]
POINT_DATA 34560
VECTORS v double
1.1934 -0.216933 0
1.18474 -0.191346 0
1.1776 -0.169032 0
1.16278 -0.206019 0
1.15191 -0.183366 0
1.14304 -0.162712 0
1.12748 -0.194114 0
1.11509 -0.173523 0
1.10432 -0.154585 0
1.1776 -0.169032 0
1.17157 -0.148501 0
1.16673 -0.130442 0
1.14304 -0.162712 0
1.13492 -0.143817 0
1.12846 -0.126863 0
1.10432 -0.154585 0
1.09463 -0.1372 0
1.08641 -0.121408 0
1.12748 -0.194114 0
1.11509 -0.173523 0
1.10432 -0.154585 0
1.08594 -0.179601 0
1.0721 -0.16131 0
1.05996 -0.144363 0
1.03827 -0.165249 0
1.02359 -0.148988 0
1.01046 -0.133784 0
1.10432 -0.154585 0
1.09463 -0.1372 0
1.08641 -0.121408 0
1.05996 -0.144363 0
1.04893 -0.12867 0
1.03938 -0.114324 0
1.01046 -0.133784 0
0.998506 -0.11962 0
0.987965 -0.106574 0
1.16673 -0.130442 0
1.1622 -0.114087 0
1.15855 -0.0995971 0
1.12846 -0.126863 0
1.12214 -0.11143 0
1.11708 -0.0976228 0
1.08641 -0.121408 0
1.07865 -0.107002 0
1.0721 -0.0939794 0
1.15855 -0.0995971 0
1.15477 -0.0864812 0
1.15157 -0.07471 0
1.11708 -0.0976228 0
1.11186 -0.0850206 0
1.10752 -0.0736413 0
1.0721 -0.0939794 0
1.06566 -0.082059 0
1.06015 -0.07121 0
1.08641 -0.121408 0
1.07865 -0.107002 0
1.0721 -0.0939794 0
1.03938 -0.114324 0
1.03045 -0.101121 0
1.02274 -0.0891156 0
0.987965 -0.106574 0
0.978148 -0.0945105 0
0.969528 -0.083476 0
1.0721 -0.0939794 0
1.06566 -0.082059 0
1.06015 -0.07121 0
1.02274 -0.0891156 0
1.01533 -0.0780492 0
1.00889 -0.0679179 0
0.969528 -0.083476 0
0.961352 -0.073265 0
0.954147 -0.0638722 0
1.03827 -0.165249 0
1.02359 -0.148988 0
1.01046 -0.133784 0
0.985231 -0.149967 0
0.969926 -0.135644 0
0.956095 -0.122168 0
0.927262 -0.134792 0
0.911574 -0.12221 0
0.897246 -0.110302 0
1.01046 -0.133784 0
0.998506 -0.11962 0
0.987965 -0.106574 0
0.956095 -0.122168 0
0.943443 -0.10953 0
0.932136 -0.0978306 0
0.897246 -0.110302 0
0.884099 -0.0990892 0
0.872227 -0.0886616 0
0.927262 -0.134792 0
0.911574 -0.12221 0
0.897246 -0.110302 0
0.864234 -0.118762 0
0.848305 -0.107889 0
0.833687 -0.097562 0
0.796387 -0.103159 0
0.780428 -0.0938444 0
0.765703 -0.0849625 0
0.897246 -0.110302 0
0.884099 -0.0990892 0
0.872227 -0.0886616 0
0.833687 -0.097562 0
0.820227 -0.0877993 0
0.807997 -0.0786884 0
0.765703 -0.0849625 0
0.75212 -0.0765422 0
0.739711 -0.0686615 0
0.987965 -0.106574 0
0.978148 -0.0945105 0
0.969528 -0.083476 0
0.932136 -0.0978306 0
0.921639 -0.0869641 0
0.912303 -0.0769814 0
0.872227 -0.0886616 0
0.861227 -0.0789465 0
0.85135 -0.0699908 0
0.969528 -0.083476 0
0.961352 -0.073265 0
0.954147 -0.0638722 0
0.912303 -0.0769814 0
0.903531 -0.0677113 0
0.89573 -0.059154 0
0.85135 -0.0699908 0
0.842132 -0.0616592 0
0.833874 -0.0539496 0
0.872227 -0.0886616 0
0.861227 -0.0789465 0
0.85135 -0.0699908 0
0.807997 -0.0786884 0
0.796673 -0.0701737 0
0.786444 -0.0623061 0
0.739711 -0.0686615 0
0.728233 -0.0612863 0
0.717813 -0.0544617 0
0.85135 -0.0699908 0
0.842132 -0.0616592 0
0.833874 -0.0539496 0
0.786444 -0.0623061 0
0.776938 -0.0549738 0
0.768384 -0.0481803 0
0.717813 -0.0544617 0
0.708166 -0.0481026 0
0.699452 -0.0422101 0
1.15157 -0.07471 0
1.14815 -0.0638975 0
1.14508 -0.0539531 0
1.10752 -0.0736413 0
1.10299 -0.0631114 0
1.09907 -0.0533875 0
1.06015 -0.07121 0
1.05467 -0.0611355 0
1.0499 -0.0517807 0
1.14508 -0.0539531 0
1.14171 -0.044554 0
1.13853 -0.0355982 0
1.09907 -0.0533875 0
1.09492 -0.0441463 0
1.09118 -0.0353148 0
1.0499 -0.0517807 0
1.04507 -0.0428596 0
1.04077 -0.0342998 0
1.06015 -0.07121 0
1.05467 -0.0611355 0
1.0499 -0.0517807 0
1.00889 -0.0679179 0
1.00266 -0.0584543 0
0.997197 -0.0496238 0
0.954147 -0.0638722 0
0.94731 -0.0550701 0
0.941275 -0.0468232 0
1.0499 -0.0517807 0
1.04507 -0.0428596 0
1.04077 -0.0342998 0
0.997197 -0.0496238 0
0.991857 -0.0411624 0
0.987114 -0.0330052 0
0.941275 -0.0468232 0
0.935508 -0.0388944 0
0.930401 -0.0312226 0
1.13853 -0.0355982 0
1.13515 -0.0267994 0
1.1319 -0.018057 0
1.09118 -0.0353148 0
1.08733 -0.0266187 0
1.08378 -0.0179664 0
1.04077 -0.0342998 0
1.03652 -0.025848 0
1.0327 -0.017428 0
1.1319 -0.018057 0
1.12841 -0.00913816 0
1.125 0 0
1.08378 -0.0179664 0
1.08011 -0.00912843 0
1.07666 0 0
1.0327 -0.017428 0
1.02887 -0.00882696 0
1.02539 0 0
1.04077 -0.0342998 0
1.03652 -0.025848 0
1.0327 -0.017428 0
0.987114 -0.0330052 0
0.982571 -0.0249181 0
0.978546 -0.0168394 0
0.930401 -0.0312226 0
0.925622 -0.0235938 0
0.921435 -0.0159499 0
1.0327 -0.017428 0
1.02887 -0.00882696 0
1.02539 0 0
0.978546 -0.0168394 0
0.974645 -0.00856248 0
0.971191 0 0
0.921435 -0.0159499 0
0.917484 -0.00810098 0
0.914062 0 0
0.954147 -0.0638722 0
0.94731 -0.0550701 0
0.941275 -0.0468232 0
0.89573 -0.059154 0
0.88842 -0.0511091 0
0.88194 -0.0435466 0
0.833874 -0.0539496 0
0.826208 -0.0466912 0
0.819389 -0.0398531 0
0.941275 -0.0468232 0
0.935508 -0.0388944 0
0.930401 -0.0312226 0
0.88194 -0.0435466 0
0.875854 -0.0362498 0
0.870479 -0.0291638 0
0.819389 -0.0398531 0
0.813069 -0.03324 0
0.8075 -0.026797 0
0.833874 -0.0539496 0
0.826208 -0.0466912 0
0.819389 -0.0398531 0
0.768384 -0.0481803 0
0.760493 -0.0417761 0
0.75346 -0.0357353 0
0.699452 -0.0422101 0
0.691454 -0.0366599 0
0.684313 -0.0314252 0
0.819389 -0.0398531 0
0.813069 -0.03324 0
0.8075 -0.026797 0
0.75346 -0.0357353 0
0.747006 -0.0298777 0
0.741334 -0.0241525 0
0.684313 -0.0314252 0
0.67781 -0.0263454 0
0.672108 -0.0213676 0
0.930401 -0.0312226 0
0.925622 -0.0235938 0
0.921435 -0.0159499 0
0.870479 -0.0291638 0
0.865543 -0.0220864 0
0.861266 -0.0149666 0
0.8075 -0.026797 0
0.802463 -0.0203364 0
0.798142 -0.0138092 0
0.921435 -0.0159499 0
0.917484 -0.00810098 0
0.914062 0 0
0.861266 -0.0149666 0
0.857332 -0.00762455 0
0.854004 0 0
0.798142 -0.0138092 0
0.794246 -0.00704752 0
0.791016 0 0
0.8075 -0.026797 0
0.802463 -0.0203364 0
0.798142 -0.0138092 0
0.741334 -0.0241525 0
0.73627 -0.018381 0
0.731968 -0.0125182 0
0.672108 -0.0213676 0
0.667073 -0.016324 0
0.662836 -0.011168 0
0.798142 -0.0138092 0
0.794246 -0.00704752 0
0.791016 0 0
0.731968 -0.0125182 0
0.728171 -0.0064047 0
0.725098 0 0
0.662836 -0.011168 0
0.659161 -0.0057481 0
0.65625 0 0
0.796387 -0.103159 0
0.780428 -0.0938444 0
0.765703 -0.0849625 0
0.723899 -0.0870694 0
0.707993 -0.0792602 0
0.693288 -0.0718024 0
0.646682 -0.07144 0
0.630982 -0.0650506 0
0.616439 -0.05894 0
0.765703 -0.0849625 0
0.75212 -0.0765422 0
0.739711 -0.0686615 0
0.693288 -0.0718024 0
0.679701 -0.0647203 0
0.667259 -0.0580852 0
0.616439 -0.05894 0
0.603007 -0.0531336 0
0.59069 -0.0476917 0
0.646682 -0.07144 0
0.630982 -0.0650506 0
0.616439 -0.05894 0
0.564429 -0.0555099 0
0.54906 -0.0505151 0
0.534846 -0.0457465 0
0.475924 -0.0403068 0
0.461252 -0.0366591 0
0.447706 -0.0331843 0
0.616439 -0.05894 0
0.603007 -0.0531336 0
0.59069 -0.0476917 0
0.534846 -0.0457465 0
0.521729 -0.0412203 0
0.509718 -0.036986 0
0.447706 -0.0331843 0
0.435241 -0.0298917 0
0.423852 -0.0268211 0
0.739711 -0.0686615 0
0.728233 -0.0612863 0
0.717813 -0.0544617 0
0.667259 -0.0580852 0
0.655764 -0.0518716 0
0.645307 -0.0461218 0
0.59069 -0.0476917 0
0.579336 -0.0425975 0
0.568998 -0.0378875 0
0.717813 -0.0544617 0
0.708166 -0.0481026 0
0.699452 -0.0422101 0
0.645307 -0.0461218 0
0.635657 -0.0407671 0
0.626928 -0.0358115 0
0.568998 -0.0378875 0
0.559495 -0.0335096 0
0.550896 -0.0294667 0
0.59069 -0.0476917 0
0.579336 -0.0425975 0
0.568998 -0.0378875 0
0.509718 -0.036986 0
0.498678 -0.0330282 0
0.488644 -0.0293784 0
0.423852 -0.0268211 0
0.413423 -0.0239575 0
0.403967 -0.0213258 0
0.568998 -0.0378875 0
0.559495 -0.0335096 0
0.550896 -0.0294667 0
0.488644 -0.0293784 0
0.479457 -0.0259936 0
0.471161 -0.0228776 0
0.403967 -0.0213258 0
0.395349 -0.0188918 0
0.387586 -0.0166597 0
0.475924 -0.0403068 0
0.461252 -0.0366591 0
0.447706 -0.0331843 0
0.379175 -0.0256045 0
0.365827 -0.0232488 0
0.353562 -0.0210189 0
0.270784 -0.0129824 0
0.25997 -0.0117927 0
0.250067 -0.0106745 0
0.447706 -0.0331843 0
0.435241 -0.0298917 0
0.423852 -0.0268211 0
0.353562 -0.0210189 0
0.342311 -0.0189156 0
0.332073 -0.016967 0
0.250067 -0.0106745 0
0.241012 -0.00961946 0
0.232795 -0.00864917 0
0.270784 -0.0129824 0
0.25997 -0.0117927 0
0.250067 -0.0106745 0
0.146639 -0.00363806 0
0.140089 -0.00329279 0
0.134116 -0.00297727 0
0 0 0
0 0 0
0 0 0
0.250067 -0.0106745 0
0.241012 -0.00961946 0
0.232795 -0.00864917 0
0.134116 -0.00297727 0
0.128644 -0.00267831 0
0.123686 -0.00241208 0
0 0 0
0 0 0
0 0 0
0.423852 -0.0268211 0
0.413423 -0.0239575 0
0.403967 -0.0213258 0
0.332073 -0.016967 0
0.322731 -0.0151577 0
0.314288 -0.0135052 0
0.232795 -0.00864917 0
0.225316 -0.00774784 0
0.218566 -0.00693032 0
0.403967 -0.0213258 0
0.395349 -0.0188918 0
0.387586 -0.0166597 0
0.314288 -0.0135052 0
0.306621 -0.0119812 0
0.299733 -0.0105911 0
0.218566 -0.00693032 0
0.212443 -0.00617567 0
0.206941 -0.00549173 0
0.232795 -0.00864917 0
0.225316 -0.00774784 0
0.218566 -0.00693032 0
0.123686 -0.00241208 0
0.119158 -0.0021615 0
0.115063 -0.0019412 0
0 0 0
0 0 0
0 0 0
0.218566 -0.00693032 0
0.212443 -0.00617567 0
0.206941 -0.00549173 0
0.115063 -0.0019412 0
0.11133 -0.00173333 0
0.107963 -0.00155079 0
0 0 0
0 0 0
0 0 0
0.699452 -0.0422101 0
0.691454 -0.0366599 0
0.684313 -0.0314252 0
0.626928 -0.0358115 0
0.618948 -0.0311497 0
0.611818 -0.0267598 0
0.550896 -0.0294667 0
0.543063 -0.0256747 0
0.536066 -0.0221148 0
0.684313 -0.0314252 0
0.67781 -0.0263454 0
0.672108 -0.0213676 0
0.611818 -0.0267598 0
0.605366 -0.0224973 0
0.59972 -0.0183116 0
0.536066 -0.0221148 0
0.529763 -0.0186633 0
0.524258 -0.0152694 0
0.550896 -0.0294667 0
0.543063 -0.0256747 0
0.536066 -0.0221148 0
0.471161 -0.0228776 0
0.463631 -0.0199619 0
0.456914 -0.0172352 0
0.387586 -0.0166597 0
0.380565 -0.0145772 0
0.374312 -0.0126376 0
0.536066 -0.0221148 0
0.529763 -0.0186633 0
0.524258 -0.0152694 0
0.456914 -0.0172352 0
0.450887 -0.0145947 0
0.445633 -0.0119955 0
0.374312 -0.0126376 0
0.368718 -0.0107623 0
0.363849 -0.00891448 0
0.672108 -0.0213676 0
0.667073 -0.016324 0
0.662836 -0.011168 0
0.59972 -0.0183116 0
0.594782 -0.0140435 0
0.590667 -0.00964756 0
0.524258 -0.0152694 0
0.519478 -0.0117871 0
0.515533 -0.00816779 0
0.662836 -0.011168 0
0.659161 -0.0057481 0
0.65625 0 0
0.590667 -0.00964756 0
0.587166 -0.00497601 0
0.584473 0 0
0.515533 -0.00816779 0
0.512234 -0.00426909 0
0.509766 0 0
0.524258 -0.0152694 0
0.519478 -0.0117871 0
0.515533 -0.00816779 0
0.445633 -0.0119955 0
0.441092 -0.00930741 0
0.437372 -0.00648834 0
0.363849 -0.00891448 0
0.359649 -0.00698847 0
0.356228 -0.00494005 0
0.515533 -0.00816779 0
0.512234 -0.00426909 0
0.509766 0 0
0.437372 -0.00648834 0
0.434323 -0.0033991 0
0.432129 0 0
0.356228 -0.00494005 0
0.35347 -0.00265229 0
0.351562 0 0
0.387586 -0.0166597 0
0.380565 -0.0145772 0
0.374312 -0.0126376 0
0.299733 -0.0105911 0
0.293516 -0.00929438 0
0.287987 -0.00809034 0
0.206941 -0.00549173 0
0.201972 -0.0048519 0
0.197545 -0.00425935 0
0.374312 -0.0126376 0
0.368718 -0.0107623 0
0.363849 -0.00891448 0
0.287987 -0.00809034 0
0.283047 -0.00692227 0
0.278753 -0.00576758 0
0.197545 -0.00425935 0
0.193583 -0.00368107 0
0.190133 -0.00310997 0
0.206941 -0.00549173 0
0.201972 -0.0048519 0
0.197545 -0.00425935 0
0.107963 -0.00155079 0
0.104899 -0.00137565 0
0.10216 -0.00121656 0
0 0 0
0 0 0
0 0 0
0.197545 -0.00425935 0
0.193583 -0.00368107 0
0.190133 -0.00310997 0
0.10216 -0.00121656 0
0.0996805 -0.00105261 0
0.0975154 -0.000893857 0
0 0 0
0 0 0
0 0 0
0.363849 -0.00891448 0
0.359649 -0.00698847 0
0.356228 -0.00494005 0
0.278753 -0.00576758 0
0.275045 -0.00454446 0
0.272041 -0.00322639 0
0.190133 -0.00310997 0
0.187148 -0.00249955 0
0.184738 -0.00181929 0
0.356228 -0.00494005 0
0.35347 -0.00265229 0
0.351562 0 0
0.272041 -0.00322639 0
0.269648 -0.00171397 0
0.268066 0 0
0.184738 -0.00181929 0
0.182841 -0.00102255 0
0.181641 0 0
0.190133 -0.00310997 0
0.187148 -0.00249955 0
0.184738 -0.00181929 0
0.0975154 -0.000893857 0
0.0956164 -0.000721468 0
0.0941286 -0.000519419 0
0 0 0
0 0 0
0 0 0
0.184738 -0.00181929 0
0.182841 -0.00102255 0
0.181641 0 0
0.0941286 -0.000519419 0
0.0929366 -0.000245694 0
0.0922852 0 0
0 0 0
0 0 0
0 0 0
1.59066 -0.416041 0
1.5559 -0.429385 0
1.51849 -0.438154 0
1.53452 -0.372424 0
1.50259 -0.384418 0
1.46858 -0.392391 0
1.47401 -0.333618 0
1.44565 -0.344429 0
1.41542 -0.351875 0
1.51849 -0.438154 0
1.48129 -0.441309 0
1.44268 -0.439519 0
1.46858 -0.392391 0
1.43475 -0.396055 0
1.3998 -0.39546 0
1.41542 -0.351875 0
1.38541 -0.355817 0
1.35441 -0.356104 0
1.47401 -0.333618 0
1.44565 -0.344429 0
1.41542 -0.351875 0
1.41561 -0.30025 0
1.38976 -0.30887 0
1.36241 -0.314792 0
1.35353 -0.267342 0
1.32896 -0.27474 0
1.30318 -0.279891 0
1.41542 -0.351875 0
1.38541 -0.355817 0
1.35441 -0.356104 0
1.36241 -0.314792 0
1.33503 -0.317855 0
1.30677 -0.317983 0
1.30318 -0.279891 0
1.27745 -0.282706 0
1.25108 -0.283083 0
1.44268 -0.439519 0
1.40722 -0.432823 0
1.37181 -0.42152 0
1.3998 -0.39546 0
1.36745 -0.3907 0
1.33517 -0.382331 0
1.35441 -0.356104 0
1.32538 -0.352954 0
1.29637 -0.346539 0
1.37181 -0.42152 0
1.34083 -0.406976 0
1.31101 -0.389168 0
1.33517 -0.382331 0
1.30654 -0.3708 0
1.27895 -0.356514 0
1.29637 -0.346539 0
1.27016 -0.337284 0
1.24478 -0.325465 0
1.35441 -0.356104 0
1.32538 -0.352954 0
1.29637 -0.346539 0
1.30677 -0.317983 0
1.27992 -0.315296 0
1.25297 -0.309921 0
1.25108 -0.283083 0
1.22588 -0.281115 0
1.20071 -0.276895 0
1.29637 -0.346539 0
1.27016 -0.337284 0
1.24478 -0.325465 0
1.25297 -0.309921 0
1.22822 -0.302221 0
1.20412 -0.292386 0
1.20071 -0.276895 0
1.17737 -0.270673 0
1.15468 -0.262594 0
1.35353 -0.267342 0
1.32896 -0.27474 0
1.30318 -0.279891 0
1.28799 -0.237648 0
1.26475 -0.244113 0
1.24053 -0.248638 0
1.22137 -0.208886 0
1.19917 -0.214591 0
1.17612 -0.218645 0
1.30318 -0.279891 0
1.27745 -0.282706 0
1.25108 -0.283083 0
1.24053 -0.248638 0
1.21643 -0.251146 0
1.19181 -0.251578 0
1.17612 -0.218645 0
1.15318 -0.220987 0
1.1298 -0.221556 0
1.22137 -0.208886 0
1.19917 -0.214591 0
1.17612 -0.218645 0
1.15285 -0.181533 0
1.13132 -0.186413 0
1.10907 -0.189892 0
1.08147 -0.154938 0
1.06034 -0.15922 0
1.03858 -0.162324 0
1.17612 -0.218645 0
1.15318 -0.220987 0
1.1298 -0.221556 0
1.10907 -0.189892 0
1.08692 -0.191937 0
1.06441 -0.192487 0
1.03858 -0.162324 0
1.01697 -0.164228 0
0.995068 -0.164871 0
1.25108 -0.283083 0
1.22588 -0.281115 0
1.20071 -0.276895 0
1.19181 -0.251578 0
1.16818 -0.250005 0
1.1446 -0.246491 0
1.1298 -0.221556 0
1.10724 -0.22041 0
1.08475 -0.217593 0
1.20071 -0.276895 0
1.17737 -0.270673 0
1.15468 -0.262594 0
1.1446 -0.246491 0
1.12253 -0.241243 0
1.10103 -0.234374 0
1.08475 -0.217593 0
1.06353 -0.213273 0
1.04282 -0.207541 0
1.1298 -0.221556 0
1.10724 -0.22041 0
1.08475 -0.217593 0
1.06441 -0.192487 0
1.04261 -0.191604 0
1.0209 -0.189306 0
0.995068 -0.164871 0
0.973812 -0.164303 0
0.952671 -0.162534 0
1.08475 -0.217593 0
1.06353 -0.213273 0
1.04282 -0.207541 0
1.0209 -0.189306 0
1.00028 -0.18574 0
0.980162 -0.180958 0
0.952671 -0.162534 0
0.932503 -0.159676 0
0.912822 -0.155773 0
1.31101 -0.389168 0
1.2862 -0.369663 0
1.26349 -0.347998 0
1.27895 -0.356514 0
1.25562 -0.340112 0
1.2341 -0.322155 0
1.24478 -0.325465 0
1.2227 -0.31174 0
1.20212 -0.296421 0
1.26349 -0.347998 0
1.24489 -0.32594 0
1.2287 -0.303211 0
1.2341 -0.322155 0
1.21611 -0.303291 0
1.20028 -0.283656 0
1.20212 -0.296421 0
1.18444 -0.280051 0
1.16857 -0.262871 0
1.24478 -0.325465 0
1.2227 -0.31174 0
1.20212 -0.296421 0
1.20412 -0.292386 0
1.18274 -0.2809 0
1.16263 -0.267967 0
1.15468 -0.262594 0
1.13429 -0.253007 0
1.11508 -0.242123 0
1.20212 -0.296421 0
1.18444 -0.280051 0
1.16857 -0.262871 0
1.16263 -0.267967 0
1.14506 -0.254081 0
1.12912 -0.239451 0
1.11508 -0.242123 0
1.09804 -0.230314 0
1.08246 -0.217756 0
1.2287 -0.303211 0
1.21616 -0.280827 0
1.2063 -0.258499 0
1.20028 -0.283656 0
1.18763 -0.263807 0
1.17728 -0.244085 0
1.16857 -0.262871 0
1.15537 -0.245422 0
1.14416 -0.22793 0
1.2063 -0.258499 0
1.19879 -0.237166 0
1.1934 -0.216933 0
1.17728 -0.244085 0
1.16897 -0.22482 0
1.16278 -0.206019 0
1.14416 -0.22793 0
1.13487 -0.210742 0
1.12748 -0.194114 0
1.16857 -0.262871 0
1.15537 -0.245422 0
1.14416 -0.22793 0
1.12912 -0.239451 0
1.11562 -0.224488 0
1.10395 -0.209356 0
1.08246 -0.217756 0
1.06902 -0.204773 0
1.0572 -0.191548 0
1.14416 -0.22793 0
1.13487 -0.210742 0
1.12748 -0.194114 0
1.10395 -0.209356 0
1.09407 -0.194344 0
1.08594 -0.179601 0
1.0572 -0.191548 0
1.04696 -0.178316 0
1.03827 -0.165249 0
1.15468 -0.262594 0
1.13429 -0.253007 0
1.11508 -0.242123 0
1.10103 -0.234374 0
1.08146 -0.226189 0
1.0629 -0.216851 0
1.04282 -0.207541 0
1.02376 -0.200642 0
1.00563 -0.192715 0
1.11508 -0.242123 0
1.09804 -0.230314 0
1.08246 -0.217756 0
1.0629 -0.216851 0
1.04619 -0.206674 0
1.03076 -0.195794 0
1.00563 -0.192715 0
0.989119 -0.184015 0
0.973792 -0.174669 0
1.04282 -0.207541 0
1.02376 -0.200642 0
1.00563 -0.192715 0
0.980162 -0.180958 0
0.961469 -0.17517 0
0.943642 -0.168477 0
0.912822 -0.155773 0
0.894391 -0.150987 0
0.876775 -0.145411 0
1.00563 -0.192715 0
0.989119 -0.184015 0
0.973792 -0.174669 0
0.943642 -0.168477 0
0.927254 -0.161098 0
0.91196 -0.153129 0
0.876775 -0.145411 0
0.860445 -0.139215 0
0.845139 -0.132488 0
1.08246 -0.217756 0
1.06902 -0.204773 0
1.0572 -0.191548 0
1.03076 -0.195794 0
1.01721 -0.184509 0
1.00511 -0.172989 0
0.973792 -0.174669 0
0.960144 -0.164925 0
0.947841 -0.154931 0
1.0572 -0.191548 0
1.04696 -0.178316 0
1.03827 -0.165249 0
1.00511 -0.172989 0
0.994459 -0.161443 0
0.985231 -0.149967 0
0.947841 -0.154931 0
0.936889 -0.144851 0
0.927262 -0.134792 0
0.973792 -0.174669 0
0.960144 -0.164925 0
0.947841 -0.154931 0
0.91196 -0.153129 0
0.898169 -0.144783 0
0.88562 -0.13618 0
0.845139 -0.132488 0
0.831194 -0.125404 0
0.818415 -0.118076 0
0.947841 -0.154931 0
0.936889 -0.144851 0
0.927262 -0.134792 0
0.88562 -0.13618 0
0.874314 -0.127476 0
0.864234 -0.118762 0
0.818415 -0.118076 0
0.806814 -0.110634 0
0.796387 -0.103159 0
1.08147 -0.154938 0
1.06034 -0.15922 0
1.03858 -0.162324 0
1.00794 -0.129718 0
0.987055 -0.133402 0
0.965634 -0.136092 0
0.93124 -0.104784 0
0.91049 -0.107997 0
0.889224 -0.110383 0
1.03858 -0.162324 0
1.01697 -0.164228 0
0.995068 -0.164871 0
0.965634 -0.136092 0
0.944359 -0.137769 0
0.922852 -0.138385 0
0.889224 -0.110383 0
0.868115 -0.111932 0
0.846801 -0.112599 0
0.93124 -0.104784 0
0.91049 -0.107997 0
0.889224 -0.110383 0
0.8489 -0.0806061 0
0.828427 -0.0833192 0
0.807442 -0.0853617 0
0.754612 -0.0572057 0
0.734962 -0.0594294 0
0.714721 -0.061141 0
0.889224 -0.110383 0
0.868115 -0.111932 0
0.846801 -0.112599 0
0.807442 -0.0853617 0
0.786574 -0.0867275 0
0.765498 -0.0873812 0
0.714721 -0.061141 0
0.694531 -0.0623384 0
0.674086 -0.0629895 0
0.995068 -0.164871 0
0.973812 -0.164303 0
0.952671 -0.162534 0
0.922852 -0.138385 0
0.901921 -0.137982 0
0.881118 -0.136568 0
0.846801 -0.112599 0
0.82601 -0.112423 0
0.80536 -0.111407 0
0.952671 -0.162534 0
0.932503 -0.159676 0
0.912822 -0.155773 0
0.881118 -0.136568 0
0.861181 -0.13424 0
0.841715 -0.131029 0
0.80536 -0.111407 0
0.7855 -0.109629 0
0.766106 -0.107113 0
0.846801 -0.112599 0
0.82601 -0.112423 0
0.80536 -0.111407 0
0.765498 -0.0873812 0
0.744878 -0.087357 0
0.724389 -0.0866521 0
0.674086 -0.0629895 0
0.654013 -0.0631226 0
0.634032 -0.0627321 0
0.80536 -0.111407 0
0.7855 -0.109629 0
0.766106 -0.107113 0
0.724389 -0.0866521 0
0.704612 -0.0853337 0
0.685282 -0.0834173 0
0.634032 -0.0627321 0
0.614676 -0.0618712 0
0.595735 -0.0605498 0
0.754612 -0.0572057 0
0.734962 -0.0594294 0
0.714721 -0.061141 0
0.638225 -0.0357342 0
0.620572 -0.0373598 0
0.602222 -0.038634 0
0.483587 -0.016925 0
0.469806 -0.0179089 0
0.455245 -0.0187037 0
0.714721 -0.061141 0
0.694531 -0.0623384 0
0.674086 -0.0629895 0
0.602222 -0.038634 0
0.583786 -0.0395535 0
0.564998 -0.0400945 0
0.455245 -0.0187037 0
0.44046 -0.019313 0
0.425239 -0.0197141 0
0.483587 -0.016925 0
0.469806 -0.0179089 0
0.455245 -0.0187037 0
0.273861 -0.00473363 0
0.266264 -0.00504799 0
0.257982 -0.00530031 0
0 0 0
0 0 0
0 0 0
0.455245 -0.0187037 0
0.44046 -0.019313 0
0.425239 -0.0197141 0
0.257982 -0.00530031 0
0.249493 -0.00549982 0
0.240564 -0.00562543 0
0 0 0
0 0 0
0 0 0
0.674086 -0.0629895 0
0.654013 -0.0631226 0
0.634032 -0.0627321 0
0.564998 -0.0400945 0
0.546448 -0.0402781 0
0.527906 -0.0400969 0