# vtk DataFile Version 3.0
#This file was generated by the deal.II library on 2025/1/8 at 2:40:10
ASCII
DATASET UNSTRUCTURED_GRID

POINTS 34560 double
1.1 1.1 0
1.03125 1.09531 0
0.9625 1.09063 0
1.09375 1.03125 0
1.02539 1.02686 0
0.957031 1.02246 0
1.0875 0.9625 0
1.01953 0.958398 0
0.951563 0.954297 0
0.9625 1.09063 0
0.89375 1.08594 0
0.825 1.08125 0
0.957031 1.02246 0
0.888672 1.01807 0
0.820312 1.01367 0
0.951563 0.954297 0
0.883594 0.950195 0
0.815625 0.946094 0
1.0875 0.9625 0
1.01953 0.958398 0
0.951563 0.954297 0
1.08125 0.89375 0
1.01367 0.889941 0
0.946094 0.886133 0
1.075 0.825 0
1.00781 0.821484 0
0.940625 0.817969 0
0.951563 0.954297 0
0.883594 0.950195 0
0.815625 0.946094 0
0.946094 0.886133 0
0.878516 0.882324 0
0.810938 0.878516 0
0.940625 0.817969 0
0.873438 0.814453 0
0.80625 0.810937 0
0.825 1.08125 0
0.75625 1.07656 0
0.6875 1.07187 0
0.820312 1.01367 0
0.751953 1.00928 0
0.683594 1.00488 0
0.815625 0.946094 0
0.747656 0.941992 0
0.679688 0.937891 0
0.6875 1.07187 0
0.61875 1.06719 0
0.55 1.0625 0
0.683594 1.00488 0
0.615234 1.00049 0
0.546875 0.996094 0
0.679688 0.937891 0
0.611719 0.933789 0
0.54375 0.929688 0
0.815625 0.946094 0
0.747656 0.941992 0
0.679688 0.937891 0
0.810938 0.878516 0
0.743359 0.874707 0
0.675781 0.870898 0
0.80625 0.810937 0
0.739063 0.807422 0
0.671875 0.803906 0
0.679688 0.937891 0
0.611719 0.933789 0
0.54375 0.929688 0
0.675781 0.870898 0
0.608203 0.86709 0
0.540625 0.863281 0
0.671875 0.803906 0
0.604688 0.800391 0
0.5375 0.796875 0
1.075 0.825 0
1.00781 0.821484 0
0.940625 0.817969 0
1.06875 0.75625 0
1.00195 0.753027 0
0.935156 0.749805 0
1.0625 0.6875 0
0.996094 0.68457 0
0.929688 0.681641 0
0.940625 0.817969 0
0.873438 0.814453 0
0.80625 0.810937 0
0.935156 0.749805 0
0.868359 0.746582 0
0.801563 0.743359 0
0.929688 0.681641 0
0.863281 0.678711 0
0.796875 0.675781 0
1.0625 0.6875 0
0.996094 0.68457 0
0.929688 0.681641 0
1.05625 0.61875 0
0.990234 0.616113 0
0.924219 0.613477 0
1.05 0.55 0
0.984375 0.547656 0
0.91875 0.545313 0
0.929688 0.681641 0
0.863281 0.678711 0
0.796875 0.675781 0
0.924219 0.613477 0
0.858203 0.61084 0
0.792188 0.608203 0
0.91875 0.545313 0
0.853125 0.542969 0
0.7875 0.540625 0
0.80625 0.810937 0
0.739063 0.807422 0
0.671875 0.803906 0
0.801563 0.743359 0
0.734766 0.740137 0
0.667969 0.736914 0
0.796875 0.675781 0
0.730469 0.672852 0
0.664062 0.669922 0
0.671875 0.803906 0
0.604688 0.800391 0
0.5375 0.796875 0
0.667969 0.736914 0
0.601172 0.733691 0
0.534375 0.730469 0
0.664062 0.669922 0
0.597656 0.666992 0
0.53125 0.664062 0
0.796875 0.675781 0
0.730469 0.672852 0
0.664062 0.669922 0
0.792188 0.608203 0
0.726172 0.605566 0
0.660156 0.60293 0
0.7875 0.540625 0
0.721875 0.538281 0
0.65625 0.535937 0
0.664062 0.669922 0
0.597656 0.666992 0
0.53125 0.664062 0
0.660156 0.60293 0
0.594141 0.600293 0
0.528125 0.597656 0
0.65625 0.535937 0
0.590625 0.533594 0
0.525 0.53125 0
0.55 1.0625 0
0.48125 1.05781 0
0.4125 1.05313 0
0.546875 0.996094 0
0.478516 0.991699 0
0.410156 0.987305 0
0.54375 0.929688 0
0.475781 0.925586 0
0.407813 0.921484 0
0.4125 1.05313 0
0.34375 1.04844 0
0.275 1.04375 0
0.410156 0.987305 0
0.341797 0.98291 0
0.273438 0.978516 0
0.407813 0.921484 0
0.339844 0.917383 0
0.271875 0.913281 0
0.54375 0.929688 0
0.475781 0.925586 0
0.407813 0.921484 0
0.540625 0.863281 0
0.473047 0.859473 0
0.405469 0.855664 0
0.5375 0.796875 0
0.470313 0.793359 0
0.403125 0.789844 0
0.407813 0.921484 0
0.339844 0.917383 0
0.271875 0.913281 0
0.405469 0.855664 0
0.337891 0.851855 0
0.270313 0.848047 0
0.403125 0.789844 0
0.335938 0.786328 0
0.26875 0.782813 0
0.275 1.04375 0
0.20625 1.03906 0
0.1375 1.03437 0
0.273438 0.978516 0
0.205078 0.974121 0
0.136719 0.969727 0
0.271875 0.913281 0
0.203906 0.90918 0
0.135938 0.905078 0
0.1375 1.03437 0
0.06875 1.02969 0
0 1.025 0
0.136719 0.969727 0
0.0683594 0.965332 0
0 0.960937 0
0.135938 0.905078 0
0.0679688 0.900977 0
0 0.896875 0
0.271875 0.913281 0
0.203906 0.90918 0
0.135938 0.905078 0
0.270313 0.848047 0
0.202734 0.844238 0
0.135156 0.84043 0
0.26875 0.782813 0
0.201563 0.779297 0
0.134375 0.775781 0
0.135938 0.905078 0
0.0679688 0.900977 0
0 0.896875 0
0.135156 0.84043 0
0.0675781 0.836621 0
0 0.832812 0
0.134375 0.775781 0
0.0671875 0.772266 0
0 0.76875 0
0.5375 0.796875 0
0.470313 0.793359 0
0.403125 0.789844 0
0.534375 0.730469 0
0.467578 0.727246 0
0.400781 0.724023 0
0.53125 0.664062 0
0.464844 0.661133 0
0.398438 0.658203 0
0.403125 0.789844 0
0.335938 0.786328 0
0.26875 0.782813 0
0.400781 0.724023 0
0.333984 0.720801 0
0.267188 0.717578 0
0.398438 0.658203 0
0.332031 0.655273 0
0.265625 0.652344 0
0.53125 0.664062 0
0.464844 0.661133 0
0.398438 0.658203 0
0.528125 0.597656 0
0.462109 0.59502 0
0.396094 0.592383 0
0.525 0.53125 0
0.459375 0.528906 0
0.39375 0.526563 0
0.398438 0.658203 0
0.332031 0.655273 0
0.265625 0.652344 0
0.396094 0.592383 0
0.330078 0.589746 0
0.264062 0.587109 0
0.39375 0.526563 0
0.328125 0.524219 0
0.2625 0.521875 0
0.26875 0.782813 0
0.201563 0.779297 0
0.134375 0.775781 0
0.267188 0.717578 0
0.200391 0.714355 0
0.133594 0.711133 0
0.265625 0.652344 0
0.199219 0.649414 0
0.132812 0.646484 0
0.134375 0.775781 0
0.0671875 0.772266 0
0 0.76875 0
0.133594 0.711133 0
0.0667969 0.70791 0
0 0.704687 0
0.132812 0.646484 0
0.0664062 0.643555 0
0 0.640625 0
0.265625 0.652344 0
0.199219 0.649414 0
0.132812 0.646484 0
0.264062 0.587109 0
0.198047 0.584473 0
0.132031 0.581836 0
0.2625 0.521875 0
0.196875 0.519531 0
0.13125 0.517187 0
0.132812 0.646484 0
0.0664062 0.643555 0
0 0.640625 0
0.132031 0.581836 0
0.0660156 0.579199 0
0 0.576562 0
0.13125 0.517187 0
0.065625 0.514844 0
0 0.5125 0
1.05 0.55 0
0.984375 0.547656 0
0.91875 0.545313 0
1.04375 0.48125 0
0.978516 0.479199 0
0.913281 0.477148 0
1.0375 0.4125 0
0.972656 0.410742 0
0.907813 0.408984 0
0.91875 0.545313 0
0.853125 0.542969 0
0.7875 0.540625 0
0.913281 0.477148 0
0.848047 0.475098 0
0.782813 0.473047 0
0.907813 0.408984 0
0.842969 0.407227 0
0.778125 0.405469 0
1.0375 0.4125 0
0.972656 0.410742 0
0.907813 0.408984 0
1.03125 0.34375 0
0.966797 0.342285 0
0.902344 0.34082 0
1.025 0.275 0
0.960937 0.273828 0
0.896875 0.272656 0
0.907813 0.408984 0
0.842969 0.407227 0
0.778125 0.405469 0
0.902344 0.34082 0
0.837891 0.339355 0
0.773438 0.337891 0
0.896875 0.272656 0
0.832812 0.271484 0
0.76875 0.270313 0
0.7875 0.540625 0
0.721875 0.538281 0
0.65625 0.535937 0
0.782813 0.473047 0
0.717578 0.470996 0
0.652344 0.468945 0
0.778125 0.405469 0
0.713281 0.403711 0
0.648438 0.401953 0
0.65625 0.535937 0
0.590625 0.533594 0
0.525 0.53125 0
0.652344 0.468945 0
0.587109 0.466895 0
0.521875 0.464844 0
0.648438 0.401953 0
0.583594 0.400195 0
0.51875 0.398438 0
0.778125 0.405469 0
0.713281 0.403711 0
0.648438 0.401953 0
0.773438 0.337891 0
0.708984 0.336426 0
0.644531 0.334961 0
0.76875 0.270313 0
0.704687 0.269141 0
0.640625 0.267969 0
0.648438 0.401953 0
0.583594 0.400195 0
0.51875 0.398438 0
0.644531 0.334961 0
0.580078 0.333496 0
0.515625 0.332031 0
0.640625 0.267969 0
0.576562 0.266797 0
0.5125 0.265625 0
1.025 0.275 0
0.960937 0.273828 0
0.896875 0.272656 0
1.01875 0.20625 0
0.955078 0.205371 0
0.891406 0.204492 0
1.0125 0.1375 0
0.949219 0.136914 0
0.885937 0.136328 0
0.896875 0.272656 0
0.832812 0.271484 0
0.76875 0.270313 0
0.891406 0.204492 0
0.827734 0.203613 0
0.764062 0.202734 0
0.885937 0.136328 0
0.822656 0.135742 0
0.759375 0.135156 0
1.0125 0.1375 0
0.949219 0.136914 0
0.885937 0.136328 0
1.00625 0.06875 0
0.943359 0.068457 0
0.880469 0.0681641 0
1 0 0
0.9375 0 0
0.875 0 0
0.885937 0.136328 0
0.822656 0.135742 0
0.759375 0.135156 0
0.880469 0.0681641 0
0.817578 0.0678711 0
0.754687 0.0675781 0
0.875 0 0
0.8125 0 0
0.75 0 0
0.76875 0.270313 0
0.704687 0.269141 0
0.640625 0.267969 0
0.764062 0.202734 0
0.700391 0.201855 0
0.636719 0.200977 0
0.759375 0.135156 0
0.696094 0.13457 0
0.632812 0.133984 0
0.640625 0.267969 0
0.576562 0.266797 0
0.5125 0.265625 0
0.636719 0.200977 0
0.573047 0.200098 0
0.509375 0.199219 0
0.632812 0.133984 0
0.569531 0.133398 0
0.50625 0.132812 0
0.759375 0.135156 0
0.696094 0.13457 0
0.632812 0.133984 0
0.754687 0.0675781 0
0.691797 0.0672852 0
0.628906 0.0669922 0
0.75 0 0
0.6875 0 0
0.625 0 0
0.632812 0.133984 0
0.569531 0.133398 0
0.50625 0.132812 0
0.628906 0.0669922 0
0.566016 0.0666992 0
0.503125 0.0664062 0
0.625 0 0
0.5625 0 0
0.5 0 0
0.525 0.53125 0
0.459375 0.528906 0
0.39375 0.526563 0
0.521875 0.464844 0
0.456641 0.462793 0
0.391406 0.460742 0
0.51875 0.398438 0
0.453906 0.39668 0
0.389063 0.394922 0
0.39375 0.526563 0
0.328125 0.524219 0
0.2625 0.521875 0
0.391406 0.460742 0
0.326172 0.458691 0
0.260938 0.456641 0
0.389063 0.394922 0
0.324219 0.393164 0
0.259375 0.391406 0
0.51875 0.398438 0
0.453906 0.39668 0
0.389063 0.394922 0
0.515625 0.332031 0
0.451172 0.330566 0
0.386719 0.329102 0
0.5125 0.265625 0
0.448437 0.264453 0
0.384375 0.263281 0
0.389063 0.394922 0
0.324219 0.393164 0
0.259375 0.391406 0
0.386719 0.329102 0
0.322266 0.327637 0
0.257812 0.326172 0
0.384375 0.263281 0
0.320312 0.262109 0
0.25625 0.260937 0
0.2625 0.521875 0
0.196875 0.519531 0
0.13125 0.517187 0
0.260938 0.456641 0
0.195703 0.45459 0
0.130469 0.452539 0
0.259375 0.391406 0
0.194531 0.389648 0
0.129688 0.387891 0
0.13125 0.517187 0
0.065625 0.514844 0
0 0.5125 0
0.130469 0.452539 0
0.0652344 0.450488 0
0 0.448437 0
0.129688 0.387891 0
0.0648438 0.386133 0
0 0.384375 0
0.259375 0.391406 0
0.194531 0.389648 0
0.129688 0.387891 0
0.257812 0.326172 0
0.193359 0.324707 0
0.128906 0.323242 0
0.25625 0.260937 0
0.192187 0.259766 0
0.128125 0.258594 0
0.129688 0.387891 0
0.0648438 0.386133 0
0 0.384375 0
0.128906 0.323242 0
0.0644531 0.321777 0
0 0.320312 0
0.128125 0.258594 0
0.0640625 0.257422 0
0 0.25625 0
0.5125 0.265625 0
0.448437 0.264453 0
0.384375 0.263281 0
0.509375 0.199219 0
0.445703 0.19834 0
0.382031 0.197461 0
0.50625 0.132812 0
0.442969 0.132227 0
0.379688 0.131641 0
0.384375 0.263281 0
0.320312 0.262109 0
0.25625 0.260937 0
0.382031 0.197461 0
0.318359 0.196582 0
0.254687 0.195703 0
[...]
POINT_DATA 34560
VECTORS v double
1.27224 -0.335789 0
1.25348 -0.30753 0
1.23687 -0.281135 0
1.23887 -0.314274 0
1.21846 -0.289573 0
1.2004 -0.265589 0
1.20052 -0.292761 0
1.17909 -0.270701 0
1.15967 -0.249002 0
1.23687 -0.281135 0
1.22218 -0.255386 0
1.20943 -0.230997 0
1.2004 -0.265589 0
1.18402 -0.24219 0
1.16989 -0.21968 0
1.15967 -0.249002 0
1.1421 -0.227741 0
1.12656 -0.207017 0
1.20052 -0.292761 0
1.17909 -0.270701 0
1.15967 -0.249002 0
1.15642 -0.26888 0
1.13401 -0.249534 0
1.1136 -0.230339 0
1.10615 -0.245713 0
1.08328 -0.228811 0
1.06225 -0.211844 0
1.15967 -0.249002 0
1.1421 -0.227741 0
1.12656 -0.207017 0
1.1136 -0.230339 0
1.09499 -0.211331 0
1.0784 -0.192662 0
1.06225 -0.211844 0
1.04303 -0.19489 0
1.02572 -0.17809 0
1.20943 -0.230997 0
1.19772 -0.207447 0
1.18769 -0.184956 0
1.16989 -0.21968 0
1.15666 -0.197774 0
1.14541 -0.176727 0
1.12656 -0.207017 0
1.11217 -0.186791 0
1.09967 -0.167169 0
1.18769 -0.184956 0
1.17813 -0.163302 0
1.16996 -0.142505 0
1.14541 -0.176727 0
1.13459 -0.156278 0
1.12543 -0.136587 0
1.09967 -0.167169 0
1.08782 -0.148048 0
1.07764 -0.129519 0
1.12656 -0.207017 0
1.11217 -0.186791 0
1.09967 -0.167169 0
1.0784 -0.192662 0
1.06305 -0.17427 0
1.04956 -0.156312 0
1.02572 -0.17809 0
1.00971 -0.161428 0
0.995507 -0.145047 0
1.09967 -0.167169 0
1.08782 -0.148048 0
1.07764 -0.129519 0
1.04956 -0.156312 0
1.03691 -0.138692 0
1.02592 -0.121522 0
0.995507 -0.145047 0
0.982262 -0.12889 0
0.970662 -0.113062 0
1.10615 -0.245713 0
1.08328 -0.228811 0
1.06225 -0.211844 0
1.05071 -0.222086 0
1.02763 -0.207452 0
1.00626 -0.192609 0
0.99079 -0.198994 0
0.967668 -0.186374 0
0.946122 -0.173453 0
1.06225 -0.211844 0
1.04303 -0.19489 0
1.02572 -0.17809 0
1.00626 -0.192609 0
0.986628 -0.177636 0
0.968801 -0.162688 0
0.946122 -0.173453 0
0.92622 -0.160325 0
0.908025 -0.147129 0
0.99079 -0.198994 0
0.967668 -0.186374 0
0.946122 -0.173453 0
0.926397 -0.175235 0
0.903306 -0.164526 0
0.881705 -0.153484 0
0.85763 -0.152214 0
0.834748 -0.143236 0
0.813244 -0.133907 0
0.946122 -0.173453 0
0.92622 -0.160325 0
0.908025 -0.147129 0
0.881705 -0.153484 0
0.861655 -0.142184 0
0.843239 -0.130752 0
0.813244 -0.133907 0
0.7932 -0.124293 0
0.774703 -0.11451 0
1.02572 -0.17809 0
1.00971 -0.161428 0
0.995507 -0.145047 0
0.968801 -0.162688 0
0.952299 -0.147766 0
0.937555 -0.133004 0
0.908025 -0.147129 0
0.89117 -0.133877 0
0.876012 -0.120693 0
0.995507 -0.145047 0
0.982262 -0.12889 0
0.970662 -0.113062 0
0.937555 -0.133004 0
0.923859 -0.118367 0
0.911788 -0.103956 0
0.876012 -0.120693 0
0.861976 -0.107558 0
0.849543 -0.0945652 0
0.908025 -0.147129 0
0.89117 -0.133877 0
0.876012 -0.120693 0
0.843239 -0.130752 0
0.82615 -0.119199 0
0.810713 -0.107641 0
0.774703 -0.11451 0
0.757507 -0.10457 0
0.741906 -0.0945775 0
0.876012 -0.120693 0
0.861976 -0.107558 0
0.849543 -0.0945652 0
0.810713 -0.107641 0
0.796445 -0.0960641 0
0.783764 -0.0845592 0
0.741906 -0.0945775 0
0.727504 -0.084524 0
0.714667 -0.0744895 0
1.16996 -0.142505 0
1.16209 -0.122464 0
1.15534 -0.103148 0
1.12543 -0.136587 0
1.11658 -0.11748 0
1.10908 -0.0990443 0
1.07764 -0.129519 0
1.06797 -0.11149 0
1.05971 -0.0940317 0
1.15534 -0.103148 0
1.14876 -0.0845156 0
1.14308 -0.0665028 0
1.10908 -0.0990443 0
1.1018 -0.0811815 0
1.09562 -0.0639056 0
1.05971 -0.0940317 0
1.05184 -0.0770839 0
1.04515 -0.0606642 0
1.07764 -0.129519 0
1.06797 -0.11149 0
1.05971 -0.0940317 0
1.02592 -0.121522 0
1.01561 -0.104733 0
1.00675 -0.0884122 0
0.970662 -0.113062 0
0.959876 -0.0975287 0
0.950543 -0.0823717 0
1.05971 -0.0940317 0
1.05184 -0.0770839 0
1.04515 -0.0606642 0
1.00675 -0.0884122 0
0.998449 -0.072523 0
0.99138 -0.0570902 0
0.950543 -0.0823717 0
0.941917 -0.067582 0
0.934556 -0.05319 0
1.14308 -0.0665028 0
1.13768 -0.0490926 0
1.13304 -0.0322163 0
1.09562 -0.0639056 0
1.0898 -0.0471803 0
1.08489 -0.0309752 0
1.04515 -0.0606642 0
1.03897 -0.0447571 0
1.0338 -0.0293516 0
1.13304 -0.0322163 0
1.12869 -0.0158702 0
1.125 0 0
1.08489 -0.0309752 0
1.08038 -0.0152764 0
1.07666 0 0
1.0338 -0.0293516 0
1.02915 -0.0144456 0
1.02539 0 0
1.04515 -0.0606642 0
1.03897 -0.0447571 0
1.0338 -0.0293516 0
0.99138 -0.0570902 0
0.98495 -0.0421208 0
0.9796 -0.0276218 0
0.934556 -0.05319 0
0.927948 -0.0392265 0
0.922463 -0.0257015 0
1.0338 -0.0293516 0
1.02915 -0.0144456 0
1.02539 0 0
0.9796 -0.0276218 0
0.974911 -0.0136009 0
0.971191 0 0
0.922463 -0.0257015 0
0.917752 -0.0126394 0
0.914062 0 0
0.970662 -0.113062 0
0.959876 -0.0975287 0
0.950543 -0.0823717 0
0.911788 -0.103956 0
0.900639 -0.0897556 0
0.890951 -0.0758474 0
0.849543 -0.0945652 0
0.838122 -0.0817156 0
0.828168 -0.0690852 0
0.950543 -0.0823717 0
0.941917 -0.067582 0
0.934556 -0.05319 0
0.890951 -0.0758474 0
0.882088 -0.0622409 0
0.874522 -0.0489755 0
0.828168 -0.0690852 0
0.819145 -0.056701 0
0.811444 -0.0446055 0
0.849543 -0.0945652 0
0.838122 -0.0817156 0
0.828168 -0.0690852 0
0.783764 -0.0845592 0
0.772166 -0.0731301 0
0.762044 -0.0618523 0
0.714667 -0.0744895 0
0.702969 -0.0644823 0
0.692752 -0.0545703 0
0.828168 -0.0690852 0
0.819145 -0.056701 0
0.811444 -0.0446055 0
0.762044 -0.0618523 0
0.752937 -0.0507594 0
0.745179 -0.0399029 0
0.692752 -0.0545703 0
0.683626 -0.0447939 0
0.675872 -0.0352053 0
0.934556 -0.05319 0
0.927948 -0.0392265 0
0.922463 -0.0257015 0
0.874522 -0.0489755 0
0.867807 -0.0360961 0
0.862256 -0.0236237 0
0.811444 -0.0446055 0
0.804678 -0.0328597 0
0.799107 -0.0214901 0
0.922463 -0.0257015 0
0.917752 -0.0126394 0
0.914062 0 0
0.862256 -0.0236237 0
0.85759 -0.0115985 0
0.854004 0 0
0.799107 -0.0214901 0
0.794506 -0.01055 0
0.791016 0 0
0.811444 -0.0446055 0
0.804678 -0.0328597 0
0.799107 -0.0214901 0
0.745179 -0.0399029 0
0.738426 -0.0293533 0
0.732899 -0.0191495 0
0.675872 -0.0352053 0
0.669183 -0.0258851 0
0.663744 -0.0168763 0
0.799107 -0.0214901 0
0.794506 -0.01055 0
0.791016 0 0
0.732899 -0.0191495 0
0.728421 -0.00935975 0
0.725098 0 0
0.663744 -0.0168763 0
0.659412 -0.00826068 0
0.65625 0 0
0.85763 -0.152214 0
0.834748 -0.143236 0
0.813244 -0.133907 0
0.784948 -0.128948 0
0.762314 -0.121557 0
0.740978 -0.113833 0
0.708137 -0.106281 0
0.685873 -0.100358 0
0.664812 -0.0941346 0
0.813244 -0.133907 0
0.7932 -0.124293 0
0.774703 -0.11451 0
0.740978 -0.113833 0
0.721 -0.105829 0
0.702499 -0.0976493 0
0.664812 -0.0941346 0
0.64502 -0.0876511 0
0.62663 -0.0810009 0
0.708137 -0.106281 0
0.685873 -0.100358 0
0.664812 -0.0941346 0
0.626968 -0.0834934 0
0.605167 -0.0789172 0
0.584508 -0.0740949 0
0.539604 -0.0614951 0
0.518604 -0.0581793 0
0.498668 -0.0546763 0
0.664812 -0.0941346 0
0.64502 -0.0876511 0
0.62663 -0.0810009 0
0.584508 -0.0740949 0
0.565021 -0.0690526 0
0.546875 -0.0638712 0
0.498668 -0.0546763 0
0.479813 -0.0509984 0
0.462223 -0.0472173 0
0.774703 -0.11451 0
0.757507 -0.10457 0
0.741906 -0.0945775 0
0.702499 -0.0976493 0
0.685266 -0.0893029 0
0.66958 -0.0808791 0
0.62663 -0.0810009 0
0.609468 -0.0741868 0
0.593799 -0.0672881 0
0.741906 -0.0945775 0
0.727504 -0.084524 0
0.714667 -0.0744895 0
0.66958 -0.0808791 0
0.655109 -0.0723694 0
0.642185 -0.0638434 0
0.593799 -0.0672881 0
0.579347 -0.0602939 0
0.566418 -0.0532639 0
0.62663 -0.0810009 0
0.609468 -0.0741868 0
0.593799 -0.0672881 0
0.546875 -0.0638712 0
0.529904 -0.0585475 0
0.514376 -0.0531493 0
0.462223 -0.0472173 0
0.445745 -0.0433223 0
0.430643 -0.0393725 0
0.593799 -0.0672881 0
0.579347 -0.0602939 0
0.566418 -0.0532639 0
0.514376 -0.0531493 0
0.500051 -0.047663 0
0.48722 -0.0421376 0
0.430643 -0.0393725 0
0.416705 -0.035351 0
0.404207 -0.0312993 0
0.539604 -0.0614951 0
0.518604 -0.0581793 0
0.498668 -0.0546763 0
0.442935 -0.0401789 0
0.423312 -0.0379875 0
0.404698 -0.0356792 0
0.32883 -0.020878 0
0.312129 -0.0197442 0
0.296307 -0.0185571 0
0.498668 -0.0546763 0
0.479813 -0.0509984 0
0.462223 -0.0472173 0
0.404698 -0.0356792 0
0.387059 -0.0332522 0
0.370614 -0.0307663 0
0.296307 -0.0185571 0
0.281316 -0.0172975 0
0.26737 -0.016015 0
0.32883 -0.020878 0
0.312129 -0.0197442 0
0.296307 -0.0185571 0
0.184941 -0.00616963 0
0.174114 -0.00580511 0
0.163967 -0.00544054 0
0 0 0
0 0 0
0 0 0
0.296307 -0.0185571 0
0.281316 -0.0172975 0
0.26737 -0.016015 0
0.163967 -0.00544054 0
0.154327 -0.00504364 0
0.145457 -0.00465603 0
0 0 0
0 0 0
0 0 0
0.462223 -0.0472173 0
0.445745 -0.0433223 0
0.430643 -0.0393725 0
0.370614 -0.0307663 0
0.355192 -0.0282046 0
0.341065 -0.0256155 0
0.26737 -0.016015 0
0.254303 -0.0146864 0
0.242357 -0.0133514 0
0.430643 -0.0393725 0
0.416705 -0.035351 0
0.404207 -0.0312993 0
0.341065 -0.0256155 0
0.328023 -0.0229803 0
0.316336 -0.0203334 0
0.242357 -0.0133514 0
0.231342 -0.0119896 0
0.221492 -0.0106302 0
0.26737 -0.016015 0
0.254303 -0.0146864 0
0.242357 -0.0133514 0
0.145457 -0.00465603 0
0.137128 -0.00424495 0
0.129603 -0.00384544 0
0 0 0
0 0 0
0 0 0
0.242357 -0.0133514 0
0.231342 -0.0119896 0
0.221492 -0.0106302 0
0.129603 -0.00384544 0
0.122645 -0.00343067 0
0.116498 -0.00302851 0
0 0 0
0 0 0
0 0 0
0.714667 -0.0744895 0
0.702969 -0.0644823 0
0.692752 -0.0545703 0
0.642185 -0.0638434 0
0.630445 -0.0553064 0
0.620197 -0.0468176 0
0.566418 -0.0532639 0
0.554705 -0.0461985 0
0.544488 -0.0391476 0
0.692752 -0.0545703 0
0.683626 -0.0447939 0
0.675872 -0.0352053 0
0.620197 -0.0468176 0
0.611103 -0.0384142 0
0.60341 -0.0301509 0
0.544488 -0.0391476 0
0.535481 -0.0321422 0
0.5279 -0.025232 0
0.566418 -0.0532639 0
0.554705 -0.0461985 0
0.544488 -0.0391476 0
0.48722 -0.0421376 0
0.475618 -0.0365679 0
0.465509 -0.0309922 0
0.404207 -0.0312993 0
0.392922 -0.0272063 0
0.383099 -0.0230996 0
0.544488 -0.0391476 0
0.535481 -0.0321422 0
0.5279 -0.025232 0
0.465509 -0.0309922 0
0.456651 -0.0254301 0
0.449244 -0.0199224 0
0.383099 -0.0230996 0
0.374535 -0.018985 0
0.367422 -0.014894 0
0.675872 -0.0352053 0
0.669183 -0.0258851 0
0.663744 -0.0168763 0
0.60341 -0.0301509 0
0.596836 -0.0221102 0
0.591541 -0.0143476 0
0.5279 -0.025232 0
0.521489 -0.018499 0
0.516381 -0.0120005 0
0.663744 -0.0168763 0
0.659412 -0.00826068 0
0.65625 0 0
0.591541 -0.0143476 0
0.587405 -0.0069575 0
0.584473 0 0
0.516381 -0.0120005 0
0.512469 -0.00584535 0
0.509766 0 0
0.5279 -0.025232 0
0.521489 -0.018499 0
0.516381 -0.0120005 0
0.449244 -0.0199224 0
0.443048 -0.0145399 0
0.438181 -0.00935091 0
0.367422 -0.014894 0
0.36154 -0.0108792 0
0.356992 -0.00699403 0
0.516381 -0.0120005 0
0.512469 -0.00584535 0
0.509766 0 0
0.438181 -0.00935091 0
0.43454 -0.00446762 0
0.432129 0 0
0.356992 -0.00699403 0
0.353672 -0.00337042 0
0.351562 0 0
0.404207 -0.0312993 0
0.392922 -0.0272063 0
0.383099 -0.0230996 0
0.316336 -0.0203334 0
0.305792 -0.0176611 0
0.296633 -0.0149805 0
0.221492 -0.0106302 0
0.21262 -0.00925732 0
0.204935 -0.00788311 0
0.383099 -0.0230996 0
0.374535 -0.018985 0
0.367422 -0.014894 0
0.296633 -0.0149805 0
0.288677 -0.0122883 0
0.282116 -0.0096039 0
0.204935 -0.00788311 0
0.198276 -0.00649809 0
0.19282 -0.00511783 0
0.221492 -0.0106302 0
0.21262 -0.00925732 0
0.204935 -0.00788311 0
0.116498 -0.00302851 0
0.110944 -0.00261985 0
0.1062 -0.00221719 0
0 0 0
0 0 0
0 0 0
0.204935 -0.00788311 0
0.198276 -0.00649809 0
0.19282 -0.00511783 0
0.1062 -0.00221719 0
0.102069 -0.001805 0
0.098731 -0.00140176 0
0 0 0
0 0 0
0 0 0
0.367422 -0.014894 0
0.36154 -0.0108792 0
0.356992 -0.00699403 0
0.282116 -0.0096039 0
0.276754 -0.00695384 0
0.272698 -0.0043782 0
0.19282 -0.00511783 0
0.188417 -0.00374705 0
0.185171 -0.00238464 0
0.356992 -0.00699403 0
0.353672 -0.00337042 0
0.351562 0 0
0.272698 -0.0043782 0
0.269808 -0.00198175 0
0.268066 0 0
0.185171 -0.00238464 0
0.182926 -0.00112108 0
0.181641 0 0
0.19282 -0.00511783 0
0.188417 -0.00374705 0
0.185171 -0.00238464 0
0.098731 -0.00140176 0
0.0960411 -0.0010073 0
0.0941677 -0.000602534 0
0 0 0
0 0 0
0 0 0
0.185171 -0.00238464 0
0.182926 -0.00112108 0
0.181641 0 0
0.0941677 -0.000602534 0
0.0928952 -0.000188762 0
0.0922852 0 0
0 0 0
0 0 0
0 0 0
1.81176 -0.368901 0
1.77176 -0.403708 0
1.72775 -0.432392 0
1.73809 -0.317911 0
1.70228 -0.350327 0
1.66305 -0.377338 0
1.65927 -0.274399 0
1.62879 -0.304341 0
1.59494 -0.329787 0
1.72775 -0.432392 0
1.683 -0.453804 0
1.63584 -0.46873 0
1.66305 -0.377338 0
1.62296 -0.398564 0
1.58072 -0.414087 0
1.59494 -0.329787 0
1.56017 -0.350442 0
1.52323 -0.366198 0
1.65927 -0.274399 0
1.62879 -0.304341 0
1.59494 -0.329787 0
1.58587 -0.239476 0
1.55914 -0.265657 0
1.52944 -0.288226 0
1.50943 -0.205273 0
1.48503 -0.228932 0
1.45794 -0.249529 0
1.59494 -0.329787 0
1.56017 -0.350442 0
1.52323 -0.366198 0
1.52944 -0.288226 0
1.49856 -0.306822 0
1.46561 -0.321412 0
1.45794 -0.249529 0
1.42979 -0.266805 0
1.39973 -0.280689 0
1.63584 -0.46873 0
1.59149 -0.477079 0
1.54651 -0.479219 0
1.58072 -0.414087 0
1.54066 -0.423965 0
1.49991 -0.428803 0
1.52323 -0.366198 0
1.48778 -0.377203 0
1.45149 -0.383641 0
1.54651 -0.479219 0
1.50598 -0.476673 0
1.46611 -0.46945 0
1.49991 -0.428803 0
1.46265 -0.429104 0
1.42587 -0.425314 0
1.45149 -0.383641 0
1.4177 -0.385973 0
1.38411 -0.384489 0
1.52323 -0.366198 0
1.48778 -0.377203 0
1.45149 -0.383641 0
1.46561 -0.321412 0
1.43346 -0.332005 0
1.40029 -0.338792 0
1.39973 -0.280689 0
1.37018 -0.291191 0
1.33967 -0.298444 0
1.45149 -0.383641 0
1.4177 -0.385973 0
1.38411 -0.384489 0
1.40029 -0.338792 0
1.36887 -0.342112 0
1.33739 -0.342145 0
1.33967 -0.298444 0
1.31047 -0.30266 0
1.28115 -0.303984 0
1.50943 -0.205273 0
1.48503 -0.228932 0
1.45794 -0.249529 0
1.43065 -0.176308 0
1.40861 -0.197637 0
1.38407 -0.216343 0
1.35261 -0.148951 0
1.33252 -0.168151 0
1.31003 -0.185144 0
1.45794 -0.249529 0
1.42979 -0.266805 0
1.39973 -0.280689 0
1.38407 -0.216343 0
1.3585 -0.232187 0
1.33112 -0.245131 0
1.31003 -0.185144 0
1.2865 -0.199697 0
1.26123 -0.211775 0
1.35261 -0.148951 0
1.33252 -0.168151 0
1.31003 -0.185144 0
1.27372 -0.12463 0
1.2552 -0.141559 0
1.23441 -0.156629 0
1.19285 -0.101612 0
1.17556 -0.116523 0
1.15609 -0.129889 0
1.31003 -0.185144 0
1.2865 -0.199697 0
1.26123 -0.211775 0
1.23441 -0.156629 0
1.21254 -0.16964 0
1.18897 -0.180565 0
1.15609 -0.129889 0
1.13555 -0.141535 0
1.11335 -0.151428 0
1.39973 -0.280689 0
1.37018 -0.291191 0
1.33967 -0.298444 0
1.33112 -0.245131 0
1.30402 -0.255159 0
1.27593 -0.262369 0
1.26123 -0.211775 0
1.236 -0.221336 0
1.20977 -0.228458 0
1.33967 -0.298444 0
1.31047 -0.30266 0
1.28115 -0.303984 0
1.27593 -0.262369 0
1.24879 -0.266923 0
1.22142 -0.26892 0
1.20977 -0.228458 0
1.18418 -0.233251 0
1.15828 -0.235794 0
1.26123 -0.211775 0
1.236 -0.221336 0
1.20977 -0.228458 0
1.18897 -0.180565 0
1.16525 -0.189367 0
1.14051 -0.196095 0
1.11335 -0.151428 0
1.0909 -0.159527 0
1.06742 -0.165866 0
1.20977 -0.228458 0
1.18418 -0.233251 0
1.15828 -0.235794 0
1.14051 -0.196095 0
1.11619 -0.200837 0
1.09146 -0.20364 0
1.06742 -0.165866 0
1.04418 -0.170502 0
1.0205 -0.17347 0
1.46611 -0.46945 0
1.43152 -0.459195 0
1.39872 -0.445265 0
1.42587 -0.425314 0
1.39358 -0.418123 0
1.36276 -0.408065 0
1.38411 -0.384489 0
1.35398 -0.379892 0
1.32495 -0.372448 0
1.39872 -0.445265 0
1.37037 -0.429808 0
1.34425 -0.412365 0
1.36276 -0.408065 0
1.3357 -0.395928 0
1.31061 -0.381798 0
1.32495 -0.372448 0
1.29889 -0.362783 0
1.27438 -0.351097 0
1.38411 -0.384489 0
1.35398 -0.379892 0
1.32495 -0.372448 0
1.33739 -0.342145 0
1.30862 -0.339402 0
1.28064 -0.334081 0
1.28115 -0.303984 0
1.25402 -0.302789 0
1.22755 -0.299283 0
1.32495 -0.372448 0
1.29889 -0.362783 0
1.27438 -0.351097 0
1.28064 -0.334081 0
1.25513 -0.326749 0
1.23096 -0.317529 0
1.22755 -0.299283 0
1.20316 -0.293873 0
1.17992 -0.286677 0
1.34425 -0.412365 0
1.32222 -0.394135 0
1.30292 -0.374586 0
1.31061 -0.381798 0
1.2892 -0.366309 0
1.27009 -0.349669 0
1.27438 -0.351097 0
1.25292 -0.337985 0
1.2334 -0.323595 0
1.30292 -0.374586 0
1.28646 -0.355143 0
1.27224 -0.335789 0
1.27009 -0.349669 0
1.25336 -0.332342 0
1.23887 -0.314274 0
1.2334 -0.323595 0
1.21597 -0.308417 0
1.20052 -0.292761 0
1.27438 -0.351097 0
1.25292 -0.337985 0
1.2334 -0.323595 0
1.23096 -0.317529 0
1.20955 -0.306928 0
1.18991 -0.295083 0
1.17992 -0.286677 0
1.15908 -0.278088 0
1.13978 -0.268246 0
1.2334 -0.323595 0
1.21597 -0.308417 0
1.20052 -0.292761 0
1.18991 -0.295083 0
1.17224 -0.282387 0
1.15642 -0.26888 0
1.13978 -0.268246 0
1.12216 -0.257415 0
1.10615 -0.245713 0
1.28115 -0.303984 0
1.25402 -0.302789 0
1.22755 -0.299283 0
1.22142 -0.26892 0
1.19578 -0.268671 0
1.17061 -0.266338 0
1.15828 -0.235794 0
1.13371 -0.236329 0
1.10946 -0.234996 0
1.22755 -0.299283 0
1.20316 -0.293873 0
1.17992 -0.286677 0
1.17061 -0.266338 0
1.14711 -0.26226 0
1.12454 -0.256515 0
1.10946 -0.234996 0
1.0866 -0.232062 0
1.06452 -0.227609 0
1.15828 -0.235794 0
1.13371 -0.236329 0
1.10946 -0.234996 0
1.09146 -0.20364 0
1.06778 -0.204704 0
1.04431 -0.204121 0
1.0205 -0.17347 0
0.997613 -0.17492 0
0.974837 -0.174933 0
1.10946 -0.234996 0
1.0866 -0.232062 0
1.06452 -0.227609 0
1.04431 -0.204121 0
1.022 -0.202117 0
1.00034 -0.198747 0
0.974837 -0.174933 0
0.953007 -0.173682 0
0.931708 -0.171216 0
1.17992 -0.286677 0
1.15908 -0.278088 0
1.13978 -0.268246 0
1.12454 -0.256515 0
1.10398 -0.249455 0
1.08473 -0.241227 0
1.06452 -0.227609 0
1.04417 -0.221937 0
1.025 -0.21517 0
1.13978 -0.268246 0
1.12216 -0.257415 0
1.10615 -0.245713 0
1.08473 -0.241227 0
1.06699 -0.232091 0
1.05071 -0.222086 0
1.025 -0.21517 0
1.00722 -0.207506 0
0.99079 -0.198994 0
1.06452 -0.227609 0
1.04417 -0.221937 0
1.025 -0.21517 0
1.00034 -0.198747 0
0.980161 -0.19426 0
0.961014 -0.188747 0
0.931708 -0.171216 0
0.91167 -0.167732 0
0.892538 -0.163323 0
1.025 -0.21517 0
1.00722 -0.207506 0
0.99079 -0.198994 0
0.961014 -0.188747 0
0.943103 -0.182386 0
0.926397 -0.175235 0
0.892538 -0.163323 0
0.874524 -0.158136 0
0.85763 -0.152214 0
1.19285 -0.101612 0
1.17556 -0.116523 0
1.15609 -0.129889 0
1.1105 -0.0813719 0
1.09431 -0.0942436 0
1.07602 -0.105836 0
1.0254 -0.0619518 0
1.01023 -0.0729046 0
0.992958 -0.082823 0
1.15609 -0.129889 0
1.13555 -0.141535 0
1.11335 -0.151428 0
1.07602 -0.105836 0
1.05663 -0.115993 0
1.03563 -0.124685 0
0.992958 -0.082823 0
0.974579 -0.0915711 0
0.954571 -0.0991196 0
1.0254 -0.0619518 0
1.01023 -0.0729046 0
0.992958 -0.082823 0
0.934681 -0.0447093 0
0.920768 -0.0536696 0
0.90472 -0.061821 0
0.832511 -0.0289649 0
0.820377 -0.035913 0
0.80598 -0.0422769 0
0.992958 -0.082823 0
0.974579 -0.0915711 0
0.954571 -0.0991196 0
0.90472 -0.061821 0
0.887486 -0.0690474 0
0.868577 -0.0753239 0
0.80598 -0.0422769 0
0.790299 -0.0479635 0
0.772847 -0.0529413 0
1.11335 -0.151428 0
1.0909 -0.159527 0
1.06742 -0.165866 0
1.03563 -0.124685 0
1.01424 -0.131871 0
0.991796 -0.137577 0
0.954571 -0.0991196 0
0.934081 -0.10543 0
0.9125 -0.110517 0
1.06742 -0.165866 0
1.04418 -0.170502 0
1.0205 -0.17347 0
0.991796 -0.137577 0
0.969444 -0.141846 0
0.946576 -0.144701 0
0.9125 -0.110517 0
0.890887 -0.114414 0
0.868704 -0.117133 0
0.954571 -0.0991196 0
0.934081 -0.10543 0
0.9125 -0.110517 0
0.868577 -0.0753239 0
0.849067 -0.0806159 0
0.828405 -0.0849292 0
0.772847 -0.0529413 0
0.754657 -0.0571828 0
0.735225 -0.0606824 0
0.9125 -0.110517 0
0.890887 -0.114414 0
0.868704 -0.117133 0
0.828405 -0.0849292 0
0.80758 -0.0882887 0
0.786114 -0.0906974 0
0.735225 -0.0606824 0
0.715492 -0.0634603 0
0.695033 -0.0655088 0
0.832511 -0.0289649 0
0.820377 -0.035913 0
0.80598 -0.0422769 0
0.708268 -0.0163429 0
0.698895 -0.0211542 0
0.687164 -0.0255922 0
0.543919 -0.0063817 0
0.538166 -0.0090554 0
0.530125 -0.0115448 0
0.80598 -0.0422769 0
0.790299 -0.0479635 0
0.772847 -0.0529413 0
0.687164 -0.0255922 0
0.673993 -0.0295889 0
0.658931 -0.0331105 0
0.530125 -0.0115448 0
0.520617 -0.0138153 0
0.509241 -0.0158343 0
0.543919 -0.0063817 0
0.538166 -0.0090554 0
0.530125 -0.0115448 0
0.316291 -0.00168417 0
0.31413 -0.00251426 0
0.310226 -0.00328477 0
0 0 0
0 0 0
0 0 0
0.530125 -0.0115448 0
0.520617 -0.0138153 0
0.509241 -0.0158343 0
0.310226 -0.00328477 0
0.305321 -0.00399586 0
0.298933 -0.00461731 0
0 0 0
0 0 0
0 0 0
0.772847 -0.0529413 0
0.754657 -0.0571828 0
0.735225 -0.0606824 0
0.658931 -0.0331105 0
0.642951 -0.0361384 0
0.625603 -0.0386568 0
0.509241 -0.0158343 0
0.496834 -0.0175997 0
0.483036 -0.0190848 0
0.735225 -0.0606824 0
0.715492 -0.0634603 0
0.695033 -0.0655088 0
0.625603 -0.0386568 0
0.607779 -0.0406847 0
0.589106 -0.0422035 0