# vtk DataFile Version 3.0
#This file was generated by the deal.II library on 2025/1/1 at 21:29:35
ASCII
DATASET UNSTRUCTURED_GRID

POINTS 34560 double
1.1 1.1 0
1.03125 1.09531 0
0.9625 1.09063 0
1.09375 1.03125 0
1.02539 1.02686 0
0.957031 1.02246 0
1.0875 0.9625 0
1.01953 0.958398 0
0.951563 0.954297 0
0.9625 1.09063 0
0.89375 1.08594 0
0.825 1.08125 0
0.957031 1.02246 0
0.888672 1.01807 0
0.820312 1.01367 0
0.951563 0.954297 0
0.883594 0.950195 0
0.815625 0.946094 0
1.0875 0.9625 0
1.01953 0.958398 0
0.951563 0.954297 0
1.08125 0.89375 0
1.01367 0.889941 0
0.946094 0.886133 0
1.075 0.825 0
1.00781 0.821484 0
0.940625 0.817969 0
0.951563 0.954297 0
0.883594 0.950195 0
0.815625 0.946094 0
0.946094 0.886133 0
0.878516 0.882324 0
0.810938 0.878516 0
0.940625 0.817969 0
0.873438 0.814453 0
0.80625 0.810937 0
0.825 1.08125 0
0.75625 1.07656 0
0.6875 1.07187 0
0.820312 1.01367 0
0.751953 1.00928 0
0.683594 1.00488 0
0.815625 0.946094 0
0.747656 0.941992 0
0.679688 0.937891 0
0.6875 1.07187 0
0.61875 1.06719 0
0.55 1.0625 0
0.683594 1.00488 0
0.615234 1.00049 0
0.546875 0.996094 0
0.679688 0.937891 0
0.611719 0.933789 0
0.54375 0.929688 0
0.815625 0.946094 0
0.747656 0.941992 0
0.679688 0.937891 0
0.810938 0.878516 0
0.743359 0.874707 0
0.675781 0.870898 0
0.80625 0.810937 0
0.739063 0.807422 0
0.671875 0.803906 0
0.679688 0.937891 0
0.611719 0.933789 0
0.54375 0.929688 0
0.675781 0.870898 0
0.608203 0.86709 0
0.540625 0.863281 0
0.671875 0.803906 0
0.604688 0.800391 0
0.5375 0.796875 0
1.075 0.825 0
1.00781 0.821484 0
0.940625 0.817969 0
1.06875 0.75625 0
1.00195 0.753027 0
0.935156 0.749805 0
1.0625 0.6875 0
0.996094 0.68457 0
0.929688 0.681641 0
0.940625 0.817969 0
0.873438 0.814453 0
0.80625 0.810937 0
0.935156 0.749805 0
0.868359 0.746582 0
0.801563 0.743359 0
0.929688 0.681641 0
0.863281 0.678711 0
0.796875 0.675781 0
1.0625 0.6875 0
0.996094 0.68457 0
0.929688 0.681641 0
1.05625 0.61875 0
0.990234 0.616113 0
0.924219 0.613477 0
1.05 0.55 0
0.984375 0.547656 0
0.91875 0.545313 0
0.929688 0.681641 0
0.863281 0.678711 0
0.796875 0.675781 0
0.924219 0.613477 0
0.858203 0.61084 0
0.792188 0.608203 0
0.91875 0.545313 0
0.853125 0.542969 0
0.7875 0.540625 0
0.80625 0.810937 0
0.739063 0.807422 0
0.671875 0.803906 0
0.801563 0.743359 0
0.734766 0.740137 0
0.667969 0.736914 0
0.796875 0.675781 0
0.730469 0.672852 0
0.664062 0.669922 0
0.671875 0.803906 0
0.604688 0.800391 0
0.5375 0.796875 0
0.667969 0.736914 0
0.601172 0.733691 0
0.534375 0.730469 0
0.664062 0.669922 0
0.597656 0.666992 0
0.53125 0.664062 0
0.796875 0.675781 0
0.730469 0.672852 0
0.664062 0.669922 0
0.792188 0.608203 0
0.726172 0.605566 0
0.660156 0.60293 0
0.7875 0.540625 0
0.721875 0.538281 0
0.65625 0.535937 0
0.664062 0.669922 0
0.597656 0.666992 0
0.53125 0.664062 0
0.660156 0.60293 0
0.594141 0.600293 0
0.528125 0.597656 0
0.65625 0.535937 0
0.590625 0.533594 0
0.525 0.53125 0
0.55 1.0625 0
0.48125 1.05781 0
0.4125 1.05313 0
0.546875 0.996094 0
0.478516 0.991699 0
0.410156 0.987305 0
0.54375 0.929688 0
0.475781 0.925586 0
0.407813 0.921484 0
0.4125 1.05313 0
0.34375 1.04844 0
0.275 1.04375 0
0.410156 0.987305 0
0.341797 0.98291 0
0.273438 0.978516 0
0.407813 0.921484 0
0.339844 0.917383 0
0.271875 0.913281 0
0.54375 0.929688 0
0.475781 0.925586 0
0.407813 0.921484 0
0.540625 0.863281 0
0.473047 0.859473 0
0.405469 0.855664 0
0.5375 0.796875 0
0.470313 0.793359 0
0.403125 0.789844 0
0.407813 0.921484 0
0.339844 0.917383 0
0.271875 0.913281 0
0.405469 0.855664 0
0.337891 0.851855 0
0.270313 0.848047 0
0.403125 0.789844 0
0.335938 0.786328 0
0.26875 0.782813 0
0.275 1.04375 0
0.20625 1.03906 0
0.1375 1.03437 0
0.273438 0.978516 0
0.205078 0.974121 0
0.136719 0.969727 0
0.271875 0.913281 0
0.203906 0.90918 0
0.135938 0.905078 0
0.1375 1.03437 0
0.06875 1.02969 0
0 1.025 0
0.136719 0.969727 0
0.0683594 0.965332 0
0 0.960937 0
0.135938 0.905078 0
0.0679688 0.900977 0
0 0.896875 0
0.271875 0.913281 0
0.203906 0.90918 0
0.135938 0.905078 0
0.270313 0.848047 0
0.202734 0.844238 0
0.135156 0.84043 0
0.26875 0.782813 0
0.201563 0.779297 0
0.134375 0.775781 0
0.135938 0.905078 0
0.0679688 0.900977 0
0 0.896875 0
0.135156 0.84043 0
0.0675781 0.836621 0
0 0.832812 0
0.134375 0.775781 0
0.0671875 0.772266 0
0 0.76875 0
0.5375 0.796875 0
0.470313 0.793359 0
0.403125 0.789844 0
0.534375 0.730469 0
0.467578 0.727246 0
0.400781 0.724023 0
0.53125 0.664062 0
0.464844 0.661133 0
0.398438 0.658203 0
0.403125 0.789844 0
0.335938 0.786328 0
0.26875 0.782813 0
0.400781 0.724023 0
0.333984 0.720801 0
0.267188 0.717578 0
0.398438 0.658203 0
0.332031 0.655273 0
0.265625 0.652344 0
0.53125 0.664062 0
0.464844 0.661133 0
0.398438 0.658203 0
0.528125 0.597656 0
0.462109 0.59502 0
0.396094 0.592383 0
0.525 0.53125 0
0.459375 0.528906 0
0.39375 0.526563 0
0.398438 0.658203 0
0.332031 0.655273 0
0.265625 0.652344 0
0.396094 0.592383 0
0.330078 0.589746 0
0.264062 0.587109 0
0.39375 0.526563 0
0.328125 0.524219 0
0.2625 0.521875 0
0.26875 0.782813 0
0.201563 0.779297 0
0.134375 0.775781 0
0.267188 0.717578 0
0.200391 0.714355 0
0.133594 0.711133 0
0.265625 0.652344 0
0.199219 0.649414 0
0.132812 0.646484 0
0.134375 0.775781 0
0.0671875 0.772266 0
0 0.76875 0
0.133594 0.711133 0
0.0667969 0.70791 0
0 0.704687 0
0.132812 0.646484 0
0.0664062 0.643555 0
0 0.640625 0
0.265625 0.652344 0
0.199219 0.649414 0
0.132812 0.646484 0
0.264062 0.587109 0
0.198047 0.584473 0
0.132031 0.581836 0
0.2625 0.521875 0
0.196875 0.519531 0
0.13125 0.517187 0
0.132812 0.646484 0
0.0664062 0.643555 0
0 0.640625 0
0.132031 0.581836 0
0.0660156 0.579199 0
0 0.576562 0
0.13125 0.517187 0
0.065625 0.514844 0
0 0.5125 0
1.05 0.55 0
0.984375 0.547656 0
0.91875 0.545313 0
1.04375 0.48125 0
0.978516 0.479199 0
0.913281 0.477148 0
1.0375 0.4125 0
0.972656 0.410742 0
0.907813 0.408984 0
0.91875 0.545313 0
0.853125 0.542969 0
0.7875 0.540625 0
0.913281 0.477148 0
0.848047 0.475098 0
0.782813 0.473047 0
0.907813 0.408984 0
0.842969 0.407227 0
0.778125 0.405469 0
1.0375 0.4125 0
0.972656 0.410742 0
0.907813 0.408984 0
1.03125 0.34375 0
0.966797 0.342285 0
0.902344 0.34082 0
1.025 0.275 0
0.960937 0.273828 0
0.896875 0.272656 0
0.907813 0.408984 0
0.842969 0.407227 0
0.778125 0.405469 0
0.902344 0.34082 0
0.837891 0.339355 0
0.773438 0.337891 0
0.896875 0.272656 0
0.832812 0.271484 0
0.76875 0.270313 0
0.7875 0.540625 0
0.721875 0.538281 0
0.65625 0.535937 0
0.782813 0.473047 0
0.717578 0.470996 0
0.652344 0.468945 0
0.778125 0.405469 0
0.713281 0.403711 0
0.648438 0.401953 0
0.65625 0.535937 0
0.590625 0.533594 0
0.525 0.53125 0
0.652344 0.468945 0
0.587109 0.466895 0
0.521875 0.464844 0
0.648438 0.401953 0
0.583594 0.400195 0
0.51875 0.398438 0
0.778125 0.405469 0
0.713281 0.403711 0
0.648438 0.401953 0
0.773438 0.337891 0
0.708984 0.336426 0
0.644531 0.334961 0
0.76875 0.270313 0
0.704687 0.269141 0
0.640625 0.267969 0
0.648438 0.401953 0
0.583594 0.400195 0
0.51875 0.398438 0
0.644531 0.334961 0
0.580078 0.333496 0
0.515625 0.332031 0
0.640625 0.267969 0
0.576562 0.266797 0
0.5125 0.265625 0
1.025 0.275 0
0.960937 0.273828 0
0.896875 0.272656 0
1.01875 0.20625 0
0.955078 0.205371 0
0.891406 0.204492 0
1.0125 0.1375 0
0.949219 0.136914 0
0.885937 0.136328 0
0.896875 0.272656 0
0.832812 0.271484 0
0.76875 0.270313 0
0.891406 0.204492 0
0.827734 0.203613 0
0.764062 0.202734 0
0.885937 0.136328 0
0.822656 0.135742 0
0.759375 0.135156 0
1.0125 0.1375 0
0.949219 0.136914 0
0.885937 0.136328 0
1.00625 0.06875 0
0.943359 0.068457 0
0.880469 0.0681641 0
1 0 0
0.9375 0 0
0.875 0 0
0.885937 0.136328 0
0.822656 0.135742 0
0.759375 0.135156 0
0.880469 0.0681641 0
0.817578 0.0678711 0
0.754687 0.0675781 0
0.875 0 0
0.8125 0 0
0.75 0 0
0.76875 0.270313 0
0.704687 0.269141 0
0.640625 0.267969 0
0.764062 0.202734 0
0.700391 0.201855 0
0.636719 0.200977 0
0.759375 0.135156 0
0.696094 0.13457 0
0.632812 0.133984 0
0.640625 0.267969 0
0.576562 0.266797 0
0.5125 0.265625 0
0.636719 0.200977 0
0.573047 0.200098 0
0.509375 0.199219 0
0.632812 0.133984 0
0.569531 0.133398 0
0.50625 0.132812 0
0.759375 0.135156 0
0.696094 0.13457 0
0.632812 0.133984 0
0.754687 0.0675781 0
0.691797 0.0672852 0
0.628906 0.0669922 0
0.75 0 0
0.6875 0 0
0.625 0 0
0.632812 0.133984 0
0.569531 0.133398 0
0.50625 0.132812 0
0.628906 0.0669922 0
0.566016 0.0666992 0
0.503125 0.0664062 0
0.625 0 0
0.5625 0 0
0.5 0 0
0.525 0.53125 0
0.459375 0.528906 0
0.39375 0.526563 0
0.521875 0.464844 0
0.456641 0.462793 0
0.391406 0.460742 0
0.51875 0.398438 0
0.453906 0.39668 0
0.389063 0.394922 0
0.39375 0.526563 0
0.328125 0.524219 0
0.2625 0.521875 0
0.391406 0.460742 0
0.326172 0.458691 0
0.260938 0.456641 0
0.389063 0.394922 0
0.324219 0.393164 0
0.259375 0.391406 0
0.51875 0.398438 0
0.453906 0.39668 0
0.389063 0.394922 0
0.515625 0.332031 0
0.451172 0.330566 0
0.386719 0.329102 0
0.5125 0.265625 0
0.448437 0.264453 0
0.384375 0.263281 0
0.389063 0.394922 0
0.324219 0.393164 0
0.259375 0.391406 0
0.386719 0.329102 0
0.322266 0.327637 0
0.257812 0.326172 0
0.384375 0.263281 0
0.320312 0.262109 0
0.25625 0.260937 0
0.2625 0.521875 0
0.196875 0.519531 0
0.13125 0.517187 0
0.260938 0.456641 0
0.195703 0.45459 0
0.130469 0.452539 0
0.259375 0.391406 0
0.194531 0.389648 0
0.129688 0.387891 0
0.13125 0.517187 0
0.065625 0.514844 0
0 0.5125 0
0.130469 0.452539 0
0.0652344 0.450488 0
0 0.448437 0
0.129688 0.387891 0
0.0648438 0.386133 0
0 0.384375 0
0.259375 0.391406 0
0.194531 0.389648 0
0.129688 0.387891 0
0.257812 0.326172 0
0.193359 0.324707 0
0.128906 0.323242 0
0.25625 0.260937 0
0.192187 0.259766 0
0.128125 0.258594 0
0.129688 0.387891 0
0.0648438 0.386133 0
0 0.384375 0
0.128906 0.323242 0
0.0644531 0.321777 0
0 0.320312 0
0.128125 0.258594 0
0.0640625 0.257422 0
0 0.25625 0
0.5125 0.265625 0
0.448437 0.264453 0
0.384375 0.263281 0
0.509375 0.199219 0
0.445703 0.19834 0
0.382031 0.197461 0
0.50625 0.132812 0
0.442969 0.132227 0
0.379688 0.131641 0
0.384375 0.263281 0
0.320312 0.262109 0
0.25625 0.260937 0
0.382031 0.197461 0
0.318359 0.196582 0
0.254687 0.195703 0
[...]
POINT_DATA 34560
VECTORS v double
1.20627 -0.25527 0
1.19532 -0.225489 0
1.18622 -0.198749 0
1.17497 -0.241652 0
1.16187 -0.215023 0
1.15109 -0.190256 0
1.13882 -0.227151 0
1.12429 -0.202873 0
1.11173 -0.180103 0
1.18622 -0.198749 0
1.17843 -0.173806 0
1.17214 -0.151305 0
1.15109 -0.190256 0
1.14129 -0.167221 0
1.13344 -0.146119 0
1.11173 -0.180103 0
1.10044 -0.158856 0
1.09092 -0.139188 0
1.13882 -0.227151 0
1.12429 -0.202873 0
1.11173 -0.180103 0
1.09664 -0.210199 0
1.08073 -0.188465 0
1.06685 -0.167949 0
1.04837 -0.193368 0
1.03164 -0.173945 0
1.01682 -0.15546 0
1.11173 -0.180103 0
1.10044 -0.158856 0
1.09092 -0.139188 0
1.06685 -0.167949 0
1.05427 -0.148657 0
1.04349 -0.130692 0
1.01682 -0.15546 0
1.00337 -0.137975 0
0.991637 -0.121583 0
1.17214 -0.151305 0
1.16634 -0.130685 0
1.16165 -0.112104 0
1.13344 -0.146119 0
1.12593 -0.126683 0
1.11989 -0.10903 0
1.09092 -0.139188 0
1.08203 -0.121028 0
1.0746 -0.104393 0
1.16165 -0.112104 0
1.15705 -0.095252 0
1.1532 -0.0801051 0
1.11989 -0.10903 0
1.1139 -0.0929111 0
1.10897 -0.0783501 0
1.0746 -0.104393 0
1.06745 -0.0891616 0
1.0614 -0.0753142 0
1.09092 -0.139188 0
1.08203 -0.121028 0
1.0746 -0.104393 0
1.04349 -0.130692 0
1.03348 -0.113981 0
1.02494 -0.0985882 0
0.991637 -0.121583 0
0.980796 -0.106263 0
0.971395 -0.0920728 0
1.0746 -0.104393 0
1.06745 -0.0891616 0
1.0614 -0.0753142 0
1.02494 -0.0985882 0
1.01688 -0.0844114 0
1.00995 -0.0714564 0
0.971395 -0.0920728 0
0.962619 -0.0789527 0
0.954987 -0.0669108 0
1.04837 -0.193368 0
1.03164 -0.173945 0
1.01682 -0.15546 0
0.994745 -0.175733 0
0.977435 -0.158517 0
0.961954 -0.142029 0
0.93632 -0.158196 0
0.918643 -0.142999 0
0.902683 -0.128362 0
1.01682 -0.15546 0
1.00337 -0.137975 0
0.991637 -0.121583 0
0.961954 -0.142029 0
0.94784 -0.126338 0
0.935386 -0.111554 0
0.902683 -0.128362 0
0.88809 -0.114374 0
0.87509 -0.101132 0
0.93632 -0.158196 0
0.918643 -0.142999 0
0.902683 -0.128362 0
0.872967 -0.139815 0
0.855044 -0.126605 0
0.838788 -0.11383 0
0.804961 -0.121844 0
0.786977 -0.110476 0
0.770581 -0.0994346 0
0.902683 -0.128362 0
0.88809 -0.114374 0
0.87509 -0.101132 0
0.838788 -0.11383 0
0.823876 -0.10157 0
0.810516 -0.0899175 0
0.770581 -0.0994346 0
0.755515 -0.0888001 0
0.741949 -0.0786581 0
0.991637 -0.121583 0
0.980796 -0.106263 0
0.971395 -0.0920728 0
0.935386 -0.111554 0
0.923905 -0.0976753 0
0.913836 -0.0847625 0
0.87509 -0.101132 0
0.86313 -0.0886568 0
0.852551 -0.077005 0
0.971395 -0.0920728 0
0.962619 -0.0789527 0
0.954987 -0.0669108 0
0.913836 -0.0847625 0
0.90451 -0.0727802 0
0.896333 -0.0617432 0
0.852551 -0.077005 0
0.842813 -0.0661644 0
0.834223 -0.05615 0
0.87509 -0.101132 0
0.86313 -0.0886568 0
0.852551 -0.077005 0
0.810516 -0.0899175 0
0.798237 -0.0789004 0
0.787318 -0.0685766 0
0.741949 -0.0786581 0
0.729495 -0.0690457 0
0.718376 -0.0600146 0
0.852551 -0.077005 0
0.842813 -0.0661644 0
0.834223 -0.05615 0
0.787318 -0.0685766 0
0.777312 -0.0589453 0
0.768457 -0.0500278 0
0.718376 -0.0600146 0
0.70823 -0.0515777 0
0.69923 -0.0437541 0
1.1532 -0.0801051 0
1.14925 -0.0664394 0
1.14577 -0.0541649 0
1.10897 -0.0783501 0
1.10396 -0.0651377 0
1.09967 -0.05322 0
1.0614 -0.0753142 0
1.0555 -0.0627117 0
1.05039 -0.0512951 0
1.14577 -0.0541649 0
1.14214 -0.0430788 0
1.13877 -0.0330634 0
1.09967 -0.05322 0
1.0953 -0.042412 0
1.09138 -0.0326114 0
1.05039 -0.0512951 0
1.04538 -0.0409134 0
1.04093 -0.03147 0
1.0614 -0.0753142 0
1.0555 -0.0627117 0
1.05039 -0.0512951 0
1.00995 -0.0714564 0
1.00334 -0.0596129 0
0.997586 -0.0488426 0
0.954987 -0.0669108 0
0.947823 -0.0558727 0
0.94154 -0.0458031 0
1.05039 -0.0512951 0
1.04538 -0.0409134 0
1.04093 -0.03147 0
0.997586 -0.0488426 0
0.992097 -0.0390185 0
0.987229 -0.0300545 0
0.94154 -0.0458031 0
0.935665 -0.0366026 0
0.930466 -0.0281939 0
1.13877 -0.0330634 0
1.13527 -0.0239027 0
1.13189 -0.015467 0
1.09138 -0.0326114 0
1.08743 -0.0236282 0
1.08376 -0.0153291 0
1.04093 -0.03147 0
1.0366 -0.0227946 0
1.03267 -0.0147714 0
1.13189 -0.015467 0
1.12843 -0.00752816 0
1.125 0 0
1.08376 -0.0153291 0
1.08012 -0.007504 0
1.07666 0 0
1.03267 -0.0147714 0
1.02888 -0.00720524 0
1.02539 0 0
1.04093 -0.03147 0
1.0366 -0.0227946 0
1.03267 -0.0147714 0
0.987229 -0.0300545 0
0.982629 -0.0218008 0
0.9785 -0.0141564 0
0.930466 -0.0281939 0
0.925653 -0.0204476 0
0.921377 -0.0132685 0
1.03267 -0.0147714 0
1.02888 -0.00720524 0
1.02539 0 0
0.9785 -0.0141564 0
0.974658 -0.0069336 0
0.971191 0 0
0.921377 -0.0132685 0
0.917495 -0.00648462 0
0.914062 0 0
0.954987 -0.0669108 0
0.947823 -0.0558727 0
0.94154 -0.0458031 0
0.896333 -0.0617432 0
0.888745 -0.0515989 0
0.882066 -0.0423223 0
0.834223 -0.05615 0
0.826326 -0.0469306 0
0.819358 -0.0384857 0
0.94154 -0.0458031 0
0.935665 -0.0366026 0
0.930466 -0.0281939 0
0.882066 -0.0423223 0
0.875914 -0.0338346 0
0.870483 -0.026071 0
0.819358 -0.0384857 0
0.813017 -0.0307581 0
0.807432 -0.0236907 0
0.834223 -0.05615 0
0.826326 -0.0469306 0
0.819358 -0.0384857 0
0.768457 -0.0500278 0
0.760376 -0.0418046 0
0.753243 -0.0342638 0
0.69923 -0.0437541 0
0.691074 -0.0365368 0
0.683878 -0.0299161 0
0.819358 -0.0384857 0
0.813017 -0.0307581 0
0.807432 -0.0236907 0
0.753243 -0.0342638 0
0.746815 -0.0273624 0
0.741174 -0.0210569 0
0.683878 -0.0299161 0
0.677453 -0.023865 0
0.671835 -0.0183472 0
0.930466 -0.0281939 0
0.925653 -0.0204476 0
0.921377 -0.0132685 0
0.870483 -0.026071 0
0.865541 -0.0189156 0
0.861192 -0.012283 0
0.807432 -0.0236907 0
0.802422 -0.0171835 0
0.798051 -0.0111573 0
0.921377 -0.0132685 0
0.917495 -0.00648462 0
0.914062 0 0
0.861192 -0.012283 0
0.85734 -0.00601212 0
0.854004 0 0
0.798051 -0.0111573 0
0.79425 -0.00546193 0
0.791016 0 0
0.807432 -0.0236907 0
0.802422 -0.0171835 0
0.798051 -0.0111573 0
0.741174 -0.0210569 0
0.736176 -0.0152594 0
0.731853 -0.00990032 0
0.671835 -0.0183472 0
0.666913 -0.01329 0
0.662692 -0.0086288 0
0.798051 -0.0111573 0
0.79425 -0.00546193 0
0.791016 0 0
0.731853 -0.00990032 0
0.728169 -0.00484 0
0.725098 0 0
0.662692 -0.0086288 0
0.659152 -0.00423369 0
0.65625 0 0
0.804961 -0.121844 0
0.786977 -0.110476 0
0.770581 -0.0994346 0
0.73256 -0.103344 0
0.714566 -0.0937587 0
0.698123 -0.0844248 0
0.655741 -0.0852338 0
0.637848 -0.0773464 0
0.621455 -0.0696487 0
0.770581 -0.0994346 0
0.755515 -0.0888001 0
0.741949 -0.0786581 0
0.698123 -0.0844248 0
0.682987 -0.0754118 0
0.669323 -0.0667984 0
0.621455 -0.0696487 0
0.606363 -0.0622018 0
0.592717 -0.0550749 0
0.655741 -0.0852338 0
0.637848 -0.0773464 0
0.621455 -0.0696487 0
0.574196 -0.0666563 0
0.556484 -0.0604359 0
0.54026 -0.0543665 0
0.486261 -0.0486818 0
0.469095 -0.04408 0
0.453384 -0.0395976 0
0.621455 -0.0696487 0
0.606363 -0.0622018 0
0.592717 -0.0550749 0
0.54026 -0.0543665 0
0.525329 -0.0484943 0
0.511837 -0.0428772 0
0.453384 -0.0395976 0
0.438955 -0.0352648 0
0.425943 -0.0311293 0
0.741949 -0.0786581 0
0.729495 -0.0690457 0
0.718376 -0.0600146 0
0.669323 -0.0667984 0
0.656799 -0.058621 0
0.6456 -0.0509264 0
0.592717 -0.0550749 0
0.58024 -0.0483024 0
0.56908 -0.0419252 0
0.718376 -0.0600146 0
0.70823 -0.0515777 0
0.69923 -0.0437541 0
0.6456 -0.0509264 0
0.635422 -0.0437313 0
0.626397 -0.0370554 0
0.56908 -0.0419252 0
0.558989 -0.0359627 0
0.550055 -0.0304318 0
0.592717 -0.0550749 0
0.58024 -0.0483024 0
0.56908 -0.0419252 0
0.511837 -0.0428772 0
0.499542 -0.0375431 0
0.488567 -0.0325247 0
0.425943 -0.0311293 0
0.414135 -0.0272091 0
0.403632 -0.0235302 0
0.56908 -0.0419252 0
0.558989 -0.0359627 0
0.550055 -0.0304318 0
0.488567 -0.0325247 0
0.478699 -0.0278387 0
0.469999 -0.0234989 0
0.403632 -0.0235302 0
0.394249 -0.0201034 0
0.386023 -0.0169392 0
0.486261 -0.0486818 0
0.469095 -0.04408 0
0.453384 -0.0395976 0
0.38893 -0.0310827 0
0.37303 -0.0280415 0
0.358552 -0.0250964 0
0.27729 -0.0157151 0
0.264235 -0.0141395 0
0.252429 -0.0126261 0
0.453384 -0.0395976 0
0.438955 -0.0352648 0
0.425943 -0.0311293 0
0.358552 -0.0250964 0
0.345305 -0.0222634 0
0.333423 -0.0195758 0
0.252429 -0.0126261 0
0.241696 -0.0111699 0
0.232141 -0.00979901 0
0.27729 -0.0157151 0
0.264235 -0.0141395 0
0.252429 -0.0126261 0
0.147052 -0.00438178 0
0.139249 -0.00390933 0
0.132303 -0.00346791 0
0 0 0
0 0 0
0 0 0
0.252429 -0.0126261 0
0.241696 -0.0111699 0
0.232141 -0.00979901 0
0.132303 -0.00346791 0
0.12601 -0.00303868 0
0.120488 -0.00264514 0
0 0 0
0 0 0
0 0 0
0.425943 -0.0311293 0
0.414135 -0.0272091 0
0.403632 -0.0235302 0
0.333423 -0.0195758 0
0.322701 -0.0170422 0
0.31322 -0.0146788 0
0.232141 -0.00979901 0
0.223582 -0.0085111 0
0.216071 -0.00731904 0
0.403632 -0.0235302 0
0.394249 -0.0201034 0
0.386023 -0.0169392 0
0.31322 -0.0146788 0
0.304811 -0.0124904 0
0.297492 -0.0104821 0
0.216071 -0.00731904 0
0.20946 -0.00621989 0
0.20375 -0.00521912 0
0.232141 -0.00979901 0
0.223582 -0.0085111 0
0.216071 -0.00731904 0
0.120488 -0.00264514 0
0.115566 -0.00227595 0
0.1113 -0.00194279 0
0 0 0
0 0 0
0 0 0
0.216071 -0.00731904 0
0.20946 -0.00621989 0
0.20375 -0.00521912 0
0.1113 -0.00194279 0
0.107566 -0.00163628 0
0.104367 -0.00136378 0
0 0 0
0 0 0
0 0 0
0.69923 -0.0437541 0
0.691074 -0.0365368 0
0.683878 -0.0299161 0
0.626397 -0.0370554 0
0.618274 -0.0308966 0
0.611126 -0.0252493 0
0.550055 -0.0304318 0
0.542073 -0.0253349 0
0.53508 -0.020667 0
0.683878 -0.0299161 0
0.677453 -0.023865 0
0.671835 -0.0183472 0
0.611126 -0.0252493 0
0.6048 -0.0200945 0
0.599299 -0.0154075 0
0.53508 -0.020667 0
0.528947 -0.016417 0
0.523651 -0.0125665 0
0.550055 -0.0304318 0
0.542073 -0.0253349 0
0.53508 -0.020667 0
0.469999 -0.0234989 0
0.46229 -0.0195067 0
0.455582 -0.0158579 0
0.386023 -0.0169392 0
0.378798 -0.0140368 0
0.372564 -0.0113908 0
0.53508 -0.020667 0
0.528947 -0.016417 0
0.523651 -0.0125665 0
0.455582 -0.0158579 0
0.449762 -0.0125434 0
0.444784 -0.00955197 0
0.372564 -0.0113908 0
0.367216 -0.00899298 0
0.362697 -0.00683688 0
0.671835 -0.0183472 0
0.666913 -0.01329 0
0.662692 -0.0086288 0
0.599299 -0.0154075 0
0.594532 -0.0111282 0
0.590483 -0.00720303 0
0.523651 -0.0125665 0
0.519112 -0.00907023 0
0.515295 -0.00588206 0
0.662692 -0.0086288 0
0.659152 -0.00423369 0
0.65625 0 0
0.590483 -0.00720303 0
0.587146 -0.0035131 0
0.584473 0 0
0.515295 -0.00588206 0
0.512199 -0.00289751 0
0.509766 0 0
0.523651 -0.0125665 0
0.519112 -0.00907023 0
0.515295 -0.00588206 0
0.444784 -0.00955197 0
0.440566 -0.0068496 0
0.437062 -0.00440796 0
0.362697 -0.00683688 0
0.358916 -0.00490014 0
0.355816 -0.00316084 0
0.515295 -0.00588206 0
0.512199 -0.00289751 0
0.509766 0 0
0.437062 -0.00440796 0
0.434267 -0.00213886 0
0.432129 0 0
0.355816 -0.00316084 0
0.353381 -0.00156461 0
0.351562 0 0
0.386023 -0.0169392 0
0.378798 -0.0140368 0
0.372564 -0.0113908 0
0.297492 -0.0104821 0
0.291125 -0.00865041 0
0.285681 -0.00698779 0
0.20375 -0.00521912 0
0.198825 -0.00431064 0
0.19465 -0.00348994 0
0.372564 -0.0113908 0
0.367216 -0.00899298 0
0.362697 -0.00683688 0
0.285681 -0.00698779 0
0.281067 -0.00548462 0
0.277218 -0.00413775 0
0.19465 -0.00348994 0
0.191146 -0.00274827 0
0.188255 -0.00208617 0
0.20375 -0.00521912 0
0.198825 -0.00431064 0
0.19465 -0.00348994 0
0.104367 -0.00136378 0
0.101625 -0.00111772 0
0.0993109 -0.000899019 0
0 0 0
0 0 0
0 0 0
0.19465 -0.00348994 0
0.191146 -0.00274827 0
0.188255 -0.00208617 0
0.0993109 -0.000899019 0
0.0973802 -0.000699421 0
0.0957877 -0.000524707 0
0 0 0
0 0 0
0 0 0
0.362697 -0.00683688 0
0.358916 -0.00490014 0
0.355816 -0.00316084 0
0.277218 -0.00413775 0
0.274048 -0.00292864 0
0.271492 -0.00184934 0
0.188255 -0.00208617 0
0.185914 -0.00149144 0
0.184064 -0.000953364 0
0.355816 -0.00316084 0
0.353381 -0.00156461 0
0.351562 0 0
0.271492 -0.00184934 0
0.269512 -0.000865028 0
0.268066 0 0
0.184064 -0.000953364 0
0.182654 -0.000471122 0
0.181641 0 0
0.188255 -0.00208617 0
0.185914 -0.00149144 0
0.184064 -0.000953364 0
0.0957877 -0.000524707 0
0.0945128 -0.000368196 0
0.0935288 -0.000223657 0
0 0 0
0 0 0
0 0 0
0.184064 -0.000953364 0
0.182654 -0.000471122 0
0.181641 0 0
0.0935288 -0.000223657 0
0.0927865 -7.58986e-05 0
0.0922852 0 0
0 0 0
0 0 0
0 0 0
1.65212 -0.482323 0
1.61138 -0.494818 0
1.56924 -0.502235 0
1.59782 -0.432337 0
1.56008 -0.444085 0
1.52118 -0.451392 0
1.53791 -0.386941 0
1.50375 -0.398094 0
1.46851 -0.405425 0
1.56924 -0.502235 0
1.52755 -0.504059 0
1.48557 -0.500818 0
1.52118 -0.451392 0
1.48268 -0.454216 0
1.44395 -0.452586 0
1.46851 -0.405425 0
1.43371 -0.408994 0
1.39862 -0.408659 0
1.53791 -0.386941 0
1.50375 -0.398094 0
1.46851 -0.405425 0
1.4793 -0.347327 0
1.44795 -0.356826 0
1.41569 -0.363158 0
1.4171 -0.308514 0
1.38731 -0.317149 0
1.35676 -0.323059 0
1.46851 -0.405425 0
1.43371 -0.408994 0
1.39862 -0.408659 0
1.41569 -0.363158 0
1.38359 -0.366333 0
1.3512 -0.366254 0
1.35676 -0.323059 0
1.32641 -0.326283 0
1.29586 -0.326723 0
1.48557 -0.500818 0
1.44658 -0.49285 0
1.40845 -0.480224 0
1.44395 -0.452586 0
1.40779 -0.446771 0
1.37238 -0.437216 0
1.39862 -0.408659 0
1.36558 -0.404787 0
1.33315 -0.397476 0
1.40845 -0.480224 0
1.37453 -0.464391 0
1.34225 -0.445213 0
1.37238 -0.437216 0
1.34051 -0.424504 0
1.31014 -0.408904 0
1.33315 -0.397476 0
1.30352 -0.387245 0
1.27519 -0.374287 0
1.39862 -0.408659 0
1.36558 -0.404787 0
1.33315 -0.397476 0
1.3512 -0.366254 0
1.32031 -0.363154 0
1.28984 -0.357132 0
1.29586 -0.326723 0
1.26656 -0.324584 0
1.23773 -0.319934 0
1.33315 -0.397476 0
1.30352 -0.387245 0
1.27519 -0.374287 0
1.28984 -0.357132 0
1.26158 -0.348637 0
1.2344 -0.337796 0
1.23773 -0.319934 0
1.21076 -0.313102 0
1.18483 -0.304189 0
1.4171 -0.308514 0
1.38731 -0.317149 0
1.35676 -0.323059 0
1.35086 -0.273108 0
1.32265 -0.281114 0
1.29376 -0.286703 0
1.28352 -0.239113 0
1.25664 -0.24654 0
1.22912 -0.251861 0
1.35676 -0.323059 0
1.32641 -0.326283 0
1.29586 -0.326723 0
1.29376 -0.286703 0
1.26512 -0.289918 0
1.23632 -0.290698 0
1.22912 -0.251861 0
1.20179 -0.255109 0
1.17431 -0.256227 0
1.28352 -0.239113 0
1.25664 -0.24654 0
1.22912 -0.251861 0
1.21459 -0.206868 0
1.18867 -0.21356 0
1.16214 -0.218424 0
1.14292 -0.175748 0
1.11768 -0.18185 0
1.09184 -0.186384 0
1.22912 -0.251861 0
1.20179 -0.255109 0
1.17431 -0.256227 0
1.16214 -0.218424 0
1.13575 -0.221504 0
1.1092 -0.222749 0
1.09184 -0.186384 0
1.06614 -0.189391 0
1.04028 -0.19082 0
1.29586 -0.326723 0
1.26656 -0.324584 0
1.23773 -0.319934 0
1.23632 -0.290698 0
1.2086 -0.289211 0
1.1813 -0.285503 0
1.17431 -0.256227 0
1.14772 -0.255355 0
1.1215 -0.252527 0
1.23773 -0.319934 0
1.21076 -0.313102 0
1.18483 -0.304189 0
1.1813 -0.285503 0
1.15558 -0.279852 0
1.13078 -0.272341 0
1.1215 -0.252527 0
1.09661 -0.247977 0
1.07256 -0.241769 0
1.17431 -0.256227 0
1.14772 -0.255355 0
1.1215 -0.252527 0
1.1092 -0.222749 0
1.08341 -0.22229 0
1.05794 -0.220137 0
1.04028 -0.19082 0
1.01509 -0.190782 0
0.990197 -0.189279 0
1.1215 -0.252527 0
1.09661 -0.247977 0
1.07256 -0.241769 0
1.05794 -0.220137 0
1.03363 -0.216496 0
1.01008 -0.2114 0
0.990197 -0.189279 0
0.966325 -0.186476 0
0.943175 -0.182401 0
1.34225 -0.445213 0
1.31469 -0.424174 0
1.2896 -0.400834 0
1.31014 -0.408904 0
1.28386 -0.391081 0
1.25976 -0.371513 0
1.27519 -0.374287 0
1.25011 -0.359287 0
1.22687 -0.342498 0
1.2896 -0.400834 0
1.26848 -0.376925 0
1.25002 -0.352143 0
1.25976 -0.371513 0
1.23913 -0.350886 0
1.22095 -0.329276 0
1.22687 -0.342498 0
1.20653 -0.324481 0
1.18828 -0.305438 0
1.27519 -0.374287 0
1.25011 -0.359287 0
1.22687 -0.342498 0
1.2344 -0.337796 0
1.20992 -0.325151 0
1.18704 -0.310847 0
1.18483 -0.304189 0
1.16121 -0.293602 0
1.1391 -0.281506 0
1.22687 -0.342498 0
1.20653 -0.324481 0
1.18828 -0.305438 0
1.18704 -0.310847 0
1.16671 -0.295416 0
1.14831 -0.279021 0
1.1391 -0.281506 0
1.11923 -0.268313 0
1.10112 -0.254158 0
1.25002 -0.352143 0
1.23514 -0.32746 0
1.2231 -0.302609 0
1.22095 -0.329276 0
1.20591 -0.307264 0
1.19338 -0.285135 0
1.18828 -0.305438 0
1.1727 -0.285926 0
1.15934 -0.266141 0
1.2231 -0.302609 0
1.21352 -0.278519 0
1.20627 -0.25527 0
1.19338 -0.285135 0
1.18301 -0.263266 0
1.17497 -0.241652 0
1.15934 -0.266141 0
1.14802 -0.24647 0
1.13882 -0.227151 0
1.18828 -0.305438 0
1.1727 -0.285926 0
1.15934 -0.266141 0
1.14831 -0.279021 0
1.13237 -0.26211 0
1.11851 -0.244815 0
1.10112 -0.254158 0
1.08521 -0.239397 0
1.07118 -0.224183 0
1.15934 -0.266141 0
1.14802 -0.24647 0
1.13882 -0.227151 0
1.11851 -0.244815 0
1.10658 -0.227467 0
1.09664 -0.210199 0
1.07118 -0.224183 0
1.05887 -0.208787 0
1.04837 -0.193368 0
1.18483 -0.304189 0
1.16121 -0.293602 0
1.1391 -0.281506 0
1.13078 -0.272341 0
1.10795 -0.263328 0
1.08646 -0.252938 0
1.07256 -0.241769 0
1.05019 -0.2342 0
1.02905 -0.22538 0
1.1391 -0.281506 0
1.11923 -0.268313 0
1.10112 -0.254158 0
1.08646 -0.252938 0
1.06689 -0.241528 0
1.0489 -0.2292 0
1.02905 -0.22538 0
1.00961 -0.215605 0
0.991653 -0.204976 0
1.07256 -0.241769 0
1.05019 -0.2342 0
1.02905 -0.22538 0
1.01008 -0.2114 0
0.988021 -0.205106 0
0.967103 -0.197689 0
0.943175 -0.182401 0
0.921329 -0.177259 0
0.900554 -0.171119 0
1.02905 -0.22538 0
1.00961 -0.215605 0
0.991653 -0.204976 0
0.967103 -0.197689 0
0.94772 -0.189404 0
0.92972 -0.180332 0
0.900554 -0.171119 0
0.881155 -0.164185 0
0.863059 -0.156532 0
1.10112 -0.254158 0
1.08521 -0.239397 0
1.07118 -0.224183 0
1.0489 -0.2292 0
1.03285 -0.216287 0
1.01852 -0.202932 0
0.991653 -0.204976 0
0.97545 -0.193776 0
0.960867 -0.18213 0
1.07118 -0.224183 0
1.05887 -0.208787 0
1.04837 -0.193368 0
1.01852 -0.202932 0
1.00578 -0.189386 0
0.994745 -0.175733 0
0.960867 -0.18213 0
0.947788 -0.170237 0
0.93632 -0.158196 0
0.991653 -0.204976 0
0.97545 -0.193776 0
0.960867 -0.18213 0
0.92972 -0.180332 0
0.913311 -0.17071 0
0.898425 -0.160642 0
0.863059 -0.156532 0
0.846415 -0.148356 0
0.831218 -0.139757 0
0.960867 -0.18213 0
0.947788 -0.170237 0
0.93632 -0.158196 0
0.898425 -0.160642 0
0.884937 -0.150313 0
0.872967 -0.139815 0
0.831218 -0.139757 0
0.817353 -0.130893 0
0.804961 -0.121844 0
1.14292 -0.175748 0
1.11768 -0.18185 0
1.09184 -0.186384 0
1.0693 -0.146438 0
1.0446 -0.151892 0
1.01932 -0.156002 0
0.992723 -0.11776 0
0.968498 -0.12262 0
0.943633 -0.126347 0
1.09184 -0.186384 0
1.06614 -0.189391 0
1.04028 -0.19082 0
1.01932 -0.156002 0
0.994136 -0.1588 0
0.968784 -0.160246 0
0.943633 -0.126347 0
0.918827 -0.128974 0
0.893814 -0.130462 0
0.992723 -0.11776 0
0.968498 -0.12262 0
0.943633 -0.126347 0
0.910485 -0.0902936 0
0.886927 -0.0944555 0
0.86266 -0.0976934 0
0.815496 -0.0640446 0
0.793213 -0.0674461 0
0.770065 -0.0701385 0
0.943633 -0.126347 0
0.918827 -0.128974 0
0.893814 -0.130462 0
0.86266 -0.0976934 0
0.83835 -0.100032 0
0.813766 -0.101442 0
0.770065 -0.0701385 0
0.746748 -0.0721427 0
0.723044 -0.0734283 0
1.04028 -0.19082 0
1.01509 -0.190782 0
0.990197 -0.189279 0
0.968784 -0.160246 0
0.943996 -0.160433 0
0.919477 -0.159366 0
0.893814 -0.130462 0
0.869272 -0.130894 0
0.844958 -0.130266 0
0.990197 -0.189279 0
0.966325 -0.186476 0
0.943175 -0.182401 0
0.919477 -0.159366 0
0.895843 -0.157185 0
0.872874 -0.15391 0
0.844958 -0.130266 0
0.821421 -0.128698 0
0.798505 -0.126204 0
0.893814 -0.130462 0
0.869272 -0.130894 0
0.844958 -0.130266 0
0.813766 -0.101442 0
0.789541 -0.101991 0
0.765478 -0.101673 0
0.723044 -0.0734283 0
0.699563 -0.0740498 0
0.676152 -0.0739978 0
0.844958 -0.130266 0
0.821421 -0.128698 0
0.798505 -0.126204 0
0.765478 -0.101673 0
0.742079 -0.100587 0
0.719236 -0.0987399 0
0.676152 -0.0739978 0
0.653274 -0.0733496 0
0.630875 -0.0721095 0
0.815496 -0.0640446 0
0.793213 -0.0674461 0
0.770065 -0.0701385 0
0.696053 -0.0402899 0
0.67625 -0.0427504 0
0.655422 -0.0447204 0
0.532573 -0.0193956 0
0.517044 -0.0208331 0
0.500409 -0.0220013 0
0.770065 -0.0701385 0
0.746748 -0.0721427 0
0.723044 -0.0734283 0
0.655422 -0.0447204 0
0.634219 -0.0462148 0
0.612481 -0.0472061 0
0.500409 -0.0220013 0
0.483248 -0.0229192 0
0.465459 -0.0235561 0
0.532573 -0.0193956 0
0.517044 -0.0208331 0
0.500409 -0.0220013 0
0.304444 -0.00563186 0
0.295352 -0.00608227 0
0.285405 -0.00643612 0
0 0 0
0 0 0
0 0 0
0.500409 -0.0220013 0
0.483248 -0.0229192 0
0.465459 -0.0235561 0
0.285405 -0.00643612 0
0.275022 -0.00672301 0
0.264131 -0.00690581 0
0 0 0
0 0 0
0 0 0
0.723044 -0.0734283 0
0.699563 -0.0740498 0
0.676152 -0.0739978 0
0.612481 -0.0472061 0
0.590774 -0.0477354 0
0.569009 -0.0477903 0
0.465459 -0.0235561 0
0.447523 -0.0239459 0