# vtk DataFile Version 3.0
#This file was generated by the deal.II library on 2025/1/1 at 21:23:27
ASCII
DATASET UNSTRUCTURED_GRID

POINTS 34560 double
1.1 1.1 0
1.03125 1.09531 0
0.9625 1.09063 0
1.09375 1.03125 0
1.02539 1.02686 0
0.957031 1.02246 0
1.0875 0.9625 0
1.01953 0.958398 0
0.951563 0.954297 0
0.9625 1.09063 0
0.89375 1.08594 0
0.825 1.08125 0
0.957031 1.02246 0
0.888672 1.01807 0
0.820312 1.01367 0
0.951563 0.954297 0
0.883594 0.950195 0
0.815625 0.946094 0
1.0875 0.9625 0
1.01953 0.958398 0
0.951563 0.954297 0
1.08125 0.89375 0
1.01367 0.889941 0
0.946094 0.886133 0
1.075 0.825 0
1.00781 0.821484 0
0.940625 0.817969 0
0.951563 0.954297 0
0.883594 0.950195 0
0.815625 0.946094 0
0.946094 0.886133 0
0.878516 0.882324 0
0.810938 0.878516 0
0.940625 0.817969 0
0.873438 0.814453 0
0.80625 0.810937 0
0.825 1.08125 0
0.75625 1.07656 0
0.6875 1.07187 0
0.820312 1.01367 0
0.751953 1.00928 0
0.683594 1.00488 0
0.815625 0.946094 0
0.747656 0.941992 0
0.679688 0.937891 0
0.6875 1.07187 0
0.61875 1.06719 0
0.55 1.0625 0
0.683594 1.00488 0
0.615234 1.00049 0
0.546875 0.996094 0
0.679688 0.937891 0
0.611719 0.933789 0
0.54375 0.929688 0
0.815625 0.946094 0
0.747656 0.941992 0
0.679688 0.937891 0
0.810938 0.878516 0
0.743359 0.874707 0
0.675781 0.870898 0
0.80625 0.810937 0
0.739063 0.807422 0
0.671875 0.803906 0
0.679688 0.937891 0
0.611719 0.933789 0
0.54375 0.929688 0
0.675781 0.870898 0
0.608203 0.86709 0
0.540625 0.863281 0
0.671875 0.803906 0
0.604688 0.800391 0
0.5375 0.796875 0
1.075 0.825 0
1.00781 0.821484 0
0.940625 0.817969 0
1.06875 0.75625 0
1.00195 0.753027 0
0.935156 0.749805 0
1.0625 0.6875 0
0.996094 0.68457 0
0.929688 0.681641 0
0.940625 0.817969 0
0.873438 0.814453 0
0.80625 0.810937 0
0.935156 0.749805 0
0.868359 0.746582 0
0.801563 0.743359 0
0.929688 0.681641 0
0.863281 0.678711 0
0.796875 0.675781 0
1.0625 0.6875 0
0.996094 0.68457 0
0.929688 0.681641 0
1.05625 0.61875 0
0.990234 0.616113 0
0.924219 0.613477 0
1.05 0.55 0
0.984375 0.547656 0
0.91875 0.545313 0
0.929688 0.681641 0
0.863281 0.678711 0
0.796875 0.675781 0
0.924219 0.613477 0
0.858203 0.61084 0
0.792188 0.608203 0
0.91875 0.545313 0
0.853125 0.542969 0
0.7875 0.540625 0
0.80625 0.810937 0
0.739063 0.807422 0
0.671875 0.803906 0
0.801563 0.743359 0
0.734766 0.740137 0
0.667969 0.736914 0
0.796875 0.675781 0
0.730469 0.672852 0
0.664062 0.669922 0
0.671875 0.803906 0
0.604688 0.800391 0
0.5375 0.796875 0
0.667969 0.736914 0
0.601172 0.733691 0
0.534375 0.730469 0
0.664062 0.669922 0
0.597656 0.666992 0
0.53125 0.664062 0
0.796875 0.675781 0
0.730469 0.672852 0
0.664062 0.669922 0
0.792188 0.608203 0
0.726172 0.605566 0
0.660156 0.60293 0
0.7875 0.540625 0
0.721875 0.538281 0
0.65625 0.535937 0
0.664062 0.669922 0
0.597656 0.666992 0
0.53125 0.664062 0
0.660156 0.60293 0
0.594141 0.600293 0
0.528125 0.597656 0
0.65625 0.535937 0
0.590625 0.533594 0
0.525 0.53125 0
0.55 1.0625 0
0.48125 1.05781 0
0.4125 1.05313 0
0.546875 0.996094 0
0.478516 0.991699 0
0.410156 0.987305 0
0.54375 0.929688 0
0.475781 0.925586 0
0.407813 0.921484 0
0.4125 1.05313 0
0.34375 1.04844 0
0.275 1.04375 0
0.410156 0.987305 0
0.341797 0.98291 0
0.273438 0.978516 0
0.407813 0.921484 0
0.339844 0.917383 0
0.271875 0.913281 0
0.54375 0.929688 0
0.475781 0.925586 0
0.407813 0.921484 0
0.540625 0.863281 0
0.473047 0.859473 0
0.405469 0.855664 0
0.5375 0.796875 0
0.470313 0.793359 0
0.403125 0.789844 0
0.407813 0.921484 0
0.339844 0.917383 0
0.271875 0.913281 0
0.405469 0.855664 0
0.337891 0.851855 0
0.270313 0.848047 0
0.403125 0.789844 0
0.335938 0.786328 0
0.26875 0.782813 0
0.275 1.04375 0
0.20625 1.03906 0
0.1375 1.03437 0
0.273438 0.978516 0
0.205078 0.974121 0
0.136719 0.969727 0
0.271875 0.913281 0
0.203906 0.90918 0
0.135938 0.905078 0
0.1375 1.03437 0
0.06875 1.02969 0
0 1.025 0
0.136719 0.969727 0
0.0683594 0.965332 0
0 0.960937 0
0.135938 0.905078 0
0.0679688 0.900977 0
0 0.896875 0
0.271875 0.913281 0
0.203906 0.90918 0
0.135938 0.905078 0
0.270313 0.848047 0
0.202734 0.844238 0
0.135156 0.84043 0
0.26875 0.782813 0
0.201563 0.779297 0
0.134375 0.775781 0
0.135938 0.905078 0
0.0679688 0.900977 0
0 0.896875 0
0.135156 0.84043 0
0.0675781 0.836621 0
0 0.832812 0
0.134375 0.775781 0
0.0671875 0.772266 0
0 0.76875 0
0.5375 0.796875 0
0.470313 0.793359 0
0.403125 0.789844 0
0.534375 0.730469 0
0.467578 0.727246 0
0.400781 0.724023 0
0.53125 0.664062 0
0.464844 0.661133 0
0.398438 0.658203 0
0.403125 0.789844 0
0.335938 0.786328 0
0.26875 0.782813 0
0.400781 0.724023 0
0.333984 0.720801 0
0.267188 0.717578 0
0.398438 0.658203 0
0.332031 0.655273 0
0.265625 0.652344 0
0.53125 0.664062 0
0.464844 0.661133 0
0.398438 0.658203 0
0.528125 0.597656 0
0.462109 0.59502 0
0.396094 0.592383 0
0.525 0.53125 0
0.459375 0.528906 0
0.39375 0.526563 0
0.398438 0.658203 0
0.332031 0.655273 0
0.265625 0.652344 0
0.396094 0.592383 0
0.330078 0.589746 0
0.264062 0.587109 0
0.39375 0.526563 0
0.328125 0.524219 0
0.2625 0.521875 0
0.26875 0.782813 0
0.201563 0.779297 0
0.134375 0.775781 0
0.267188 0.717578 0
0.200391 0.714355 0
0.133594 0.711133 0
0.265625 0.652344 0
0.199219 0.649414 0
0.132812 0.646484 0
0.134375 0.775781 0
0.0671875 0.772266 0
0 0.76875 0
0.133594 0.711133 0
0.0667969 0.70791 0
0 0.704687 0
0.132812 0.646484 0
0.0664062 0.643555 0
0 0.640625 0
0.265625 0.652344 0
0.199219 0.649414 0
0.132812 0.646484 0
0.264062 0.587109 0
0.198047 0.584473 0
0.132031 0.581836 0
0.2625 0.521875 0
0.196875 0.519531 0
0.13125 0.517187 0
0.132812 0.646484 0
0.0664062 0.643555 0
0 0.640625 0
0.132031 0.581836 0
0.0660156 0.579199 0
0 0.576562 0
0.13125 0.517187 0
0.065625 0.514844 0
0 0.5125 0
1.05 0.55 0
0.984375 0.547656 0
0.91875 0.545313 0
1.04375 0.48125 0
0.978516 0.479199 0
0.913281 0.477148 0
1.0375 0.4125 0
0.972656 0.410742 0
0.907813 0.408984 0
0.91875 0.545313 0
0.853125 0.542969 0
0.7875 0.540625 0
0.913281 0.477148 0
0.848047 0.475098 0
0.782813 0.473047 0
0.907813 0.408984 0
0.842969 0.407227 0
0.778125 0.405469 0
1.0375 0.4125 0
0.972656 0.410742 0
0.907813 0.408984 0
1.03125 0.34375 0
0.966797 0.342285 0
0.902344 0.34082 0
1.025 0.275 0
0.960937 0.273828 0
0.896875 0.272656 0
0.907813 0.408984 0
0.842969 0.407227 0
0.778125 0.405469 0
0.902344 0.34082 0
0.837891 0.339355 0
0.773438 0.337891 0
0.896875 0.272656 0
0.832812 0.271484 0
0.76875 0.270313 0
0.7875 0.540625 0
0.721875 0.538281 0
0.65625 0.535937 0
0.782813 0.473047 0
0.717578 0.470996 0
0.652344 0.468945 0
0.778125 0.405469 0
0.713281 0.403711 0
0.648438 0.401953 0
0.65625 0.535937 0
0.590625 0.533594 0
0.525 0.53125 0
0.652344 0.468945 0
0.587109 0.466895 0
0.521875 0.464844 0
0.648438 0.401953 0
0.583594 0.400195 0
0.51875 0.398438 0
0.778125 0.405469 0
0.713281 0.403711 0
0.648438 0.401953 0
0.773438 0.337891 0
0.708984 0.336426 0
0.644531 0.334961 0
0.76875 0.270313 0
0.704687 0.269141 0
0.640625 0.267969 0
0.648438 0.401953 0
0.583594 0.400195 0
0.51875 0.398438 0
0.644531 0.334961 0
0.580078 0.333496 0
0.515625 0.332031 0
0.640625 0.267969 0
0.576562 0.266797 0
0.5125 0.265625 0
1.025 0.275 0
0.960937 0.273828 0
0.896875 0.272656 0
1.01875 0.20625 0
0.955078 0.205371 0
0.891406 0.204492 0
1.0125 0.1375 0
0.949219 0.136914 0
0.885937 0.136328 0
0.896875 0.272656 0
0.832812 0.271484 0
0.76875 0.270313 0
0.891406 0.204492 0
0.827734 0.203613 0
0.764062 0.202734 0
0.885937 0.136328 0
0.822656 0.135742 0
0.759375 0.135156 0
1.0125 0.1375 0
0.949219 0.136914 0
0.885937 0.136328 0
1.00625 0.06875 0
0.943359 0.068457 0
0.880469 0.0681641 0
1 0 0
0.9375 0 0
0.875 0 0
0.885937 0.136328 0
0.822656 0.135742 0
0.759375 0.135156 0
0.880469 0.0681641 0
0.817578 0.0678711 0
0.754687 0.0675781 0
0.875 0 0
0.8125 0 0
0.75 0 0
0.76875 0.270313 0
0.704687 0.269141 0
0.640625 0.267969 0
0.764062 0.202734 0
0.700391 0.201855 0
0.636719 0.200977 0
0.759375 0.135156 0
0.696094 0.13457 0
0.632812 0.133984 0
0.640625 0.267969 0
0.576562 0.266797 0
0.5125 0.265625 0
0.636719 0.200977 0
0.573047 0.200098 0
0.509375 0.199219 0
0.632812 0.133984 0
0.569531 0.133398 0
0.50625 0.132812 0
0.759375 0.135156 0
0.696094 0.13457 0
0.632812 0.133984 0
0.754687 0.0675781 0
0.691797 0.0672852 0
0.628906 0.0669922 0
0.75 0 0
0.6875 0 0
0.625 0 0
0.632812 0.133984 0
0.569531 0.133398 0
0.50625 0.132812 0
0.628906 0.0669922 0
0.566016 0.0666992 0
0.503125 0.0664062 0
0.625 0 0
0.5625 0 0
0.5 0 0
0.525 0.53125 0
0.459375 0.528906 0
0.39375 0.526563 0
0.521875 0.464844 0
0.456641 0.462793 0
0.391406 0.460742 0
0.51875 0.398438 0
0.453906 0.39668 0
0.389063 0.394922 0
0.39375 0.526563 0
0.328125 0.524219 0
0.2625 0.521875 0
0.391406 0.460742 0
0.326172 0.458691 0
0.260938 0.456641 0
0.389063 0.394922 0
0.324219 0.393164 0
0.259375 0.391406 0
0.51875 0.398438 0
0.453906 0.39668 0
0.389063 0.394922 0
0.515625 0.332031 0
0.451172 0.330566 0
0.386719 0.329102 0
0.5125 0.265625 0
0.448437 0.264453 0
0.384375 0.263281 0
0.389063 0.394922 0
0.324219 0.393164 0
0.259375 0.391406 0
0.386719 0.329102 0
0.322266 0.327637 0
0.257812 0.326172 0
0.384375 0.263281 0
0.320312 0.262109 0
0.25625 0.260937 0
0.2625 0.521875 0
0.196875 0.519531 0
0.13125 0.517187 0
0.260938 0.456641 0
0.195703 0.45459 0
0.130469 0.452539 0
0.259375 0.391406 0
0.194531 0.389648 0
0.129688 0.387891 0
0.13125 0.517187 0
0.065625 0.514844 0
0 0.5125 0
0.130469 0.452539 0
0.0652344 0.450488 0
0 0.448437 0
0.129688 0.387891 0
0.0648438 0.386133 0
0 0.384375 0
0.259375 0.391406 0
0.194531 0.389648 0
0.129688 0.387891 0
0.257812 0.326172 0
0.193359 0.324707 0
0.128906 0.323242 0
0.25625 0.260937 0
0.192187 0.259766 0
0.128125 0.258594 0
0.129688 0.387891 0
0.0648438 0.386133 0
0 0.384375 0
0.128906 0.323242 0
0.0644531 0.321777 0
0 0.320312 0
0.128125 0.258594 0
0.0640625 0.257422 0
0 0.25625 0
0.5125 0.265625 0
0.448437 0.264453 0
0.384375 0.263281 0
0.509375 0.199219 0
0.445703 0.19834 0
0.382031 0.197461 0
0.50625 0.132812 0
0.442969 0.132227 0
0.379688 0.131641 0
0.384375 0.263281 0
0.320312 0.262109 0
0.25625 0.260937 0
0.382031 0.197461 0
0.318359 0.196582 0
0.254687 0.195703 0
[...]
POINT_DATA 34560
VECTORS v double
1.27085 -0.337344 0
1.25215 -0.308352 0
1.23563 -0.281247 0
1.23745 -0.315832 0
1.21709 -0.290411 0
1.19913 -0.265743 0
1.19906 -0.294291 0
1.17767 -0.271543 0
1.15834 -0.249191 0
1.23563 -0.281247 0
1.22104 -0.254857 0
1.20841 -0.229885 0
1.19913 -0.265743 0
1.18284 -0.241721 0
1.16883 -0.218647 0
1.15834 -0.249191 0
1.14086 -0.227331 0
1.12545 -0.206065 0
1.19906 -0.294291 0
1.17767 -0.271543 0
1.15834 -0.249191 0
1.15493 -0.270408 0
1.13255 -0.250404 0
1.11222 -0.230584 0
1.10464 -0.247206 0
1.0818 -0.229684 0
1.06085 -0.212126 0
1.15834 -0.249191 0
1.14086 -0.227331 0
1.12545 -0.206065 0
1.11222 -0.230584 0
1.09372 -0.211002 0
1.07725 -0.19181 0
1.06085 -0.212126 0
1.04172 -0.194628 0
1.02453 -0.177331 0
1.20841 -0.229885 0
1.19681 -0.205845 0
1.1869 -0.182952 0
1.16883 -0.218647 0
1.15571 -0.196264 0
1.14459 -0.174823 0
1.12545 -0.206065 0
1.11118 -0.185376 0
1.09881 -0.165372 0
1.1869 -0.182952 0
1.17747 -0.161008 0
1.16941 -0.140029 0
1.14459 -0.174823 0
1.1339 -0.154089 0
1.12486 -0.134216 0
1.09881 -0.165372 0
1.08711 -0.145971 0
1.07705 -0.12726 0
1.12545 -0.206065 0
1.11118 -0.185376 0
1.09881 -0.165372 0
1.07725 -0.19181 0
1.06202 -0.172971 0
1.04867 -0.154639 0
1.02453 -0.177331 0
1.00864 -0.16024 0
0.994582 -0.143497 0
1.09881 -0.165372 0
1.08711 -0.145971 0
1.07705 -0.12726 0
1.04867 -0.154639 0
1.03616 -0.136743 0
1.02531 -0.119388 0
0.994582 -0.143497 0
0.981484 -0.127068 0
0.970026 -0.111055 0
1.10464 -0.247206 0
1.0818 -0.229684 0
1.06085 -0.212126 0
1.04919 -0.223539 0
1.02611 -0.208327 0
1.00482 -0.192931 0
0.989262 -0.200387 0
0.966132 -0.187233 0
0.94464 -0.173803 0
1.06085 -0.212126 0
1.04172 -0.194628 0
1.02453 -0.177331 0
1.00482 -0.192931 0
0.985262 -0.177446 0
0.967557 -0.162029 0
0.94464 -0.173803 0
0.924809 -0.1602 0
0.906729 -0.146565 0
0.989262 -0.200387 0
0.966132 -0.187233 0
0.94464 -0.173803 0
0.924867 -0.176557 0
0.901749 -0.165363 0
0.880186 -0.153855 0
0.856112 -0.153443 0
0.833184 -0.144032 0
0.811698 -0.134286 0
0.94464 -0.173803 0
0.924809 -0.1602 0
0.906729 -0.146565 0
0.880186 -0.153855 0
0.860195 -0.142121 0
0.841886 -0.130284 0
0.811698 -0.134286 0
0.791697 -0.12428 0
0.773294 -0.114131 0
1.02453 -0.177331 0
1.00864 -0.16024 0
0.994582 -0.143497 0
0.967557 -0.162029 0
0.951183 -0.146698 0
0.936585 -0.131586 0
0.906729 -0.146565 0
0.89 -0.132927 0
0.87499 -0.11941 0
0.994582 -0.143497 0
0.981484 -0.127068 0
0.970026 -0.111055 0
0.936585 -0.131586 0
0.923042 -0.116683 0
0.911121 -0.102088 0
0.87499 -0.11941 0
0.861111 -0.106017 0
0.848836 -0.0928403 0
0.906729 -0.146565 0
0.89 -0.132927 0
0.87499 -0.11941 0
0.841886 -0.130284 0
0.824919 -0.118372 0
0.809629 -0.106501 0
0.773294 -0.114131 0
0.756212 -0.103863 0
0.740754 -0.0935807 0
0.87499 -0.11941 0
0.861111 -0.106017 0
0.848836 -0.0928403 0
0.809629 -0.106501 0
0.795521 -0.094677 0
0.783005 -0.0829904 0
0.740754 -0.0935807 0
0.726513 -0.0832938 0
0.713846 -0.073083 0
1.16941 -0.140029 0
1.16165 -0.119928 0
1.155 -0.100668 0
1.12486 -0.134216 0
1.11613 -0.115047 0
1.10873 -0.0966593 0
1.07705 -0.12726 0
1.0675 -0.109167 0
1.05935 -0.0917487 0
1.155 -0.100668 0
1.14852 -0.082206 0
1.14292 -0.0644727 0
1.10873 -0.0966593 0
1.10156 -0.0789599 0
1.09546 -0.0619512 0
1.05935 -0.0917487 0
1.05159 -0.0749546 0
1.04498 -0.0587899 0
1.07705 -0.12726 0
1.0675 -0.109167 0
1.05935 -0.0917487 0
1.02531 -0.119388 0
1.01513 -0.102529 0
1.00638 -0.0862392 0
0.970026 -0.111055 0
0.959377 -0.0954457 0
0.950157 -0.0803106 0
1.05935 -0.0917487 0
1.05159 -0.0749546 0
1.04498 -0.0587899 0
1.00638 -0.0862392 0
0.998188 -0.0704918 0
0.991203 -0.0552998 0
0.950157 -0.0803106 0
0.941648 -0.0656503 0
0.934374 -0.0514846 0
1.14292 -0.0644727 0
1.13759 -0.0474419 0
1.13299 -0.0310389 0
1.09546 -0.0619512 0
1.0897 -0.0455921 0
1.08484 -0.0298421 0
1.04498 -0.0587899 0
1.03887 -0.043234 0
1.03374 -0.0282655 0
1.13299 -0.0310389 0
1.12868 -0.0152429 0
1.125 0 0
1.08484 -0.0298421 0
1.08037 -0.0146733 0
1.07666 0 0
1.03374 -0.0282655 0
1.02913 -0.013868 0
1.02539 0 0
1.04498 -0.0587899 0
1.03887 -0.043234 0
1.03374 -0.0282655 0
0.991203 -0.0552998 0
0.984851 -0.0406651 0
0.979543 -0.0265838 0
0.934374 -0.0514846 0
0.927846 -0.037839 0
0.922404 -0.0247123 0
1.03374 -0.0282655 0
1.02913 -0.013868 0
1.02539 0 0
0.979543 -0.0265838 0
0.974901 -0.0130489 0
0.971191 0 0
0.922404 -0.0247123 0
0.917741 -0.0121135 0
0.914062 0 0
0.970026 -0.111055 0
0.959377 -0.0954457 0
0.950157 -0.0803106 0
0.911121 -0.102088 0
0.900114 -0.0878038 0
0.890547 -0.0739064 0
0.848836 -0.0928403 0
0.837565 -0.0799008 0
0.827742 -0.0672698 0
0.950157 -0.0803106 0
0.941648 -0.0656503 0
0.934374 -0.0514846 0
0.890547 -0.0739064 0
0.881807 -0.0604151 0
0.874333 -0.0473598 0
0.827742 -0.0672698 0
0.818848 -0.0549857 0
0.811245 -0.0430827 0
0.848836 -0.0928403 0
0.837565 -0.0799008 0
0.827742 -0.0672698 0
0.783005 -0.0829904 0
0.771567 -0.0714654 0
0.761585 -0.0601746 0
0.713846 -0.073083 0
0.702317 -0.062976 0
0.692253 -0.0530394 0
0.827742 -0.0672698 0
0.818848 -0.0549857 0
0.811245 -0.0430827 0
0.761585 -0.0601746 0
0.752618 -0.0491648 0
0.744966 -0.038481 0
0.692253 -0.0530394 0
0.683277 -0.0433284 0
0.67564 -0.033891 0
0.934374 -0.0514846 0
0.927846 -0.037839 0
0.922404 -0.0247123 0
0.874333 -0.0473598 0
0.867701 -0.03478 0
0.862195 -0.0226853 0
0.811245 -0.0430827 0
0.804566 -0.0316172 0
0.799044 -0.0206039 0
0.922404 -0.0247123 0
0.917741 -0.0121135 0
0.914062 0 0
0.862195 -0.0226853 0
0.857579 -0.0111 0
0.854004 0 0
0.799044 -0.0206039 0
0.794494 -0.0100791 0
0.791016 0 0
0.811245 -0.0430827 0
0.804566 -0.0316172 0
0.799044 -0.0206039 0
0.744966 -0.038481 0
0.738307 -0.0281901 0
0.732833 -0.0183192 0
0.67564 -0.033891 0
0.669053 -0.0248059 0
0.663674 -0.0161046 0
0.799044 -0.0206039 0
0.794494 -0.0100791 0
0.791016 0 0
0.732833 -0.0183192 0
0.728409 -0.00891891 0
0.725098 0 0
0.663674 -0.0161046 0
0.659398 -0.00785062 0
0.65625 0 0
0.856112 -0.153443 0
0.833184 -0.144032 0
0.811698 -0.134286 0
0.783457 -0.130064 0
0.760753 -0.122292 0
0.739412 -0.114201 0
0.706706 -0.107262 0
0.684341 -0.101014 0
0.663247 -0.0944755 0
0.811698 -0.134286 0
0.791697 -0.12428 0
0.773294 -0.114131 0
0.739412 -0.114201 0
0.719459 -0.105851 0
0.701035 -0.0973473 0
0.663247 -0.0944755 0
0.643455 -0.0876949 0
0.625119 -0.080765 0
0.706706 -0.107262 0
0.684341 -0.101014 0
0.663247 -0.0944755 0
0.625627 -0.0842957 0
0.60369 -0.0794531 0
0.582962 -0.0743725 0
0.538333 -0.0620943 0
0.517163 -0.0585724 0
0.497125 -0.0548699 0
0.663247 -0.0944755 0
0.643455 -0.0876949 0
0.625119 -0.080765 0
0.582962 -0.0743725 0
0.563445 -0.0690859 0
0.545325 -0.0636743 0
0.497125 -0.0548699 0
0.47821 -0.0510034 0
0.46062 -0.0470447 0
0.773294 -0.114131 0
0.756212 -0.103863 0
0.740754 -0.0935807 0
0.701035 -0.0973473 0
0.683903 -0.0887088 0
0.668352 -0.0800244 0
0.625119 -0.080765 0
0.608041 -0.0736977 0
0.592494 -0.0665713 0
0.740754 -0.0935807 0
0.726513 -0.0832938 0
0.713846 -0.073083 0
0.668352 -0.0800244 0
0.654039 -0.071301 0
0.641288 -0.0626095 0
0.592494 -0.0665713 0
0.578194 -0.0593877 0
0.565436 -0.0522076 0
0.625119 -0.080765 0
0.608041 -0.0736977 0
0.592494 -0.0665713 0
0.545325 -0.0636743 0
0.528415 -0.058142 0
0.512993 -0.0525555 0
0.46062 -0.0470447 0
0.444184 -0.0429893 0
0.42917 -0.0388946 0
0.592494 -0.0665713 0
0.578194 -0.0593877 0
0.565436 -0.0522076 0
0.512993 -0.0525555 0
0.498807 -0.0469117 0
0.486141 -0.0412597 0
0.42917 -0.0388946 0
0.41536 -0.0347517 0
0.403022 -0.030602 0
0.538333 -0.0620943 0
0.517163 -0.0585724 0
0.497125 -0.0548699 0
0.441587 -0.04054 0
0.421778 -0.0382055 0
0.403049 -0.0357595 0
0.327188 -0.0210287 0
0.310337 -0.0198168 0
0.294434 -0.0185552 0
0.497125 -0.0548699 0
0.47821 -0.0510034 0
0.46062 -0.0470447 0
0.403049 -0.0357595 0
0.38534 -0.0332032 0
0.368887 -0.0305964 0
0.294434 -0.0185552 0
0.279407 -0.017226 0
0.265482 -0.0158791 0
0.327188 -0.0210287 0
0.310337 -0.0198168 0
0.294434 -0.0185552 0
0.183125 -0.00619437 0
0.172258 -0.00580587 0
0.162122 -0.00541878 0
0 0 0
0 0 0
0 0 0
0.294434 -0.0185552 0
0.279407 -0.017226 0
0.265482 -0.0158791 0
0.162122 -0.00541878 0
0.152521 -0.00500055 0
0.143731 -0.00459322 0
0 0 0
0 0 0
0 0 0
0.46062 -0.0470447 0
0.444184 -0.0429893 0
0.42917 -0.0388946 0
0.368887 -0.0305964 0
0.353503 -0.0279267 0
0.339462 -0.0252408 0
0.265482 -0.0158791 0
0.25248 -0.014494 0
0.240645 -0.0131089 0
0.42917 -0.0388946 0
0.41536 -0.0347517 0
0.403022 -0.030602 0
0.339462 -0.0252408 0
0.326549 -0.022526 0
0.315026 -0.0198157 0
0.240645 -0.0131089 0
0.229779 -0.0117072 0
0.220108 -0.0103165 0
0.265482 -0.0158791 0
0.25248 -0.014494 0
0.240645 -0.0131089 0
0.143731 -0.00459322 0
0.135509 -0.00416582 0
0.12812 -0.00375194 0
0 0 0
0 0 0
0 0 0
0.240645 -0.0131089 0
0.229779 -0.0117072 0
0.220108 -0.0103165 0
0.12812 -0.00375194 0
0.121321 -0.00332694 0
0.115347 -0.00291689 0
0 0 0
0 0 0
0 0 0
0.713846 -0.073083 0
0.702317 -0.062976 0
0.692253 -0.0530394 0
0.641288 -0.0626095 0
0.629726 -0.0539725 0
0.619643 -0.0454496 0
0.565436 -0.0522076 0
0.553906 -0.0450464 0
0.543866 -0.037955 0
0.692253 -0.0530394 0
0.683277 -0.0433284 0
0.67564 -0.033891 0
0.619643 -0.0454496 0
0.610713 -0.0370938 0
0.603151 -0.0289579 0
0.543866 -0.037955 0
0.535037 -0.0309804 0
0.527604 -0.0241729 0
0.565436 -0.0522076 0
0.553906 -0.0450464 0
0.543866 -0.037955 0
0.486141 -0.0412597 0
0.474725 -0.0356067 0
0.464804 -0.0299912 0
0.403022 -0.030602 0
0.391924 -0.0264433 0
0.382297 -0.0223027 0
0.543866 -0.037955 0
0.535037 -0.0309804 0
0.527604 -0.0241729 0
0.464804 -0.0299912 0
0.45614 -0.0244475 0
0.4489 -0.0190192 0
0.382297 -0.0223027 0
0.373942 -0.0181983 0
0.367017 -0.0141647 0
0.67564 -0.033891 0
0.669053 -0.0248059 0
0.663674 -0.0161046 0
0.603151 -0.0289579 0
0.596691 -0.0211257 0
0.591465 -0.0136418 0
0.527604 -0.0241729 0
0.521323 -0.0176187 0
0.516296 -0.0113662 0
0.663674 -0.0161046 0
0.659398 -0.00785062 0
0.65625 0 0
0.591465 -0.0136418 0
0.58739 -0.00658264 0
0.584473 0 0
0.516296 -0.0113662 0
0.512451 -0.00550715 0
0.509766 0 0
0.527604 -0.0241729 0
0.521323 -0.0176187 0
0.516296 -0.0113662 0
0.4489 -0.0190192 0
0.442853 -0.0137836 0
0.438083 -0.00880268 0
0.367017 -0.0141647 0
0.361306 -0.0102628 0
0.356876 -0.00654299 0
0.516296 -0.0113662 0
0.512451 -0.00550715 0
0.509766 0 0
0.438083 -0.00880268 0
0.434519 -0.00417498 0
0.432129 0 0
0.356876 -0.00654299 0
0.353646 -0.00312729 0
0.351562 0 0
0.403022 -0.030602 0
0.391924 -0.0264433 0
0.382297 -0.0223027 0
0.315026 -0.0198157 0
0.304677 -0.0171027 0
0.295727 -0.0144023 0
0.220108 -0.0103165 0
0.211443 -0.0089249 0
0.203977 -0.00754276 0
0.382297 -0.0223027 0
0.373942 -0.0181983 0
0.367017 -0.0141647 0
0.295727 -0.0144023 0
0.287995 -0.0117195 0
0.281642 -0.00907639 0
0.203977 -0.00754276 0
0.19755 -0.00616502 0
0.19231 -0.00480818 0
0.220108 -0.0103165 0
0.211443 -0.0089249 0
0.203977 -0.00754276 0
0.115347 -0.00291689 0
0.109983 -0.00250498 0
0.105427 -0.00210195 0
0 0 0
0 0 0
0 0 0
0.203977 -0.00754276 0
0.19755 -0.00616502 0
0.19231 -0.00480818 0
0.105427 -0.00210195 0
0.101491 -0.00169491 0
0.0983285 -0.00130108 0
0 0 0
0 0 0
0 0 0
0.367017 -0.0141647 0
0.361306 -0.0102628 0
0.356876 -0.00654299 0
0.281642 -0.00907639 0
0.276474 -0.00650697 0
0.272559 -0.00405031 0
0.19231 -0.00480818 0
0.188111 -0.00348161 0
0.185018 -0.00218637 0
0.356876 -0.00654299 0
0.353646 -0.00312729 0
0.351562 0 0
0.272559 -0.00405031 0
0.269774 -0.00180646 0
0.268066 0 0
0.185018 -0.00218637 0
0.182886 -0.00101096 0
0.181641 0 0
0.19231 -0.00480818 0
0.188111 -0.00348161 0
0.185018 -0.00218637 0
0.0983285 -0.00130108 0
0.0958051 -0.000921897 0
0.0940505 -0.000540537 0
0 0 0
0 0 0
0 0 0
0.185018 -0.00218637 0
0.182886 -0.00101096 0
0.181641 0 0
0.0940505 -0.000540537 0
0.0928692 -0.000159539 0
0.0922852 0 0
0 0 0
0 0 0
0 0 0
1.81271 -0.383634 0
1.7719 -0.417277 0
1.72733 -0.444783 0
1.74023 -0.331819 0
1.70352 -0.363256 0
1.66362 -0.38927 0
1.66232 -0.287287 0
1.63089 -0.316425 0
1.59628 -0.341029 0
1.72733 -0.444783 0
1.68213 -0.465186 0
1.63468 -0.479129 0
1.66362 -0.38927 0
1.62299 -0.409548 0
1.58037 -0.424151 0
1.59628 -0.341029 0
1.56084 -0.360868 0
1.52341 -0.375812 0
1.66232 -0.287287 0
1.63089 -0.316425 0
1.59628 -0.341029 0
1.58956 -0.251302 0
1.56187 -0.276853 0
1.53136 -0.298744 0
1.51382 -0.216078 0
1.48844 -0.239224 0
1.46052 -0.259257 0
1.59628 -0.341029 0
1.56084 -0.360868 0
1.52341 -0.375812 0
1.53136 -0.298744 0
1.49978 -0.316648 0
1.46627 -0.330534 0
1.46052 -0.259257 0
1.43162 -0.275947 0
1.40095 -0.289223 0
1.63468 -0.479129 0
1.59012 -0.486574 0
1.54502 -0.487841 0
1.58037 -0.424151 0
1.53998 -0.433184 0
1.49901 -0.437209 0
1.52341 -0.375812 0
1.48751 -0.386042 0
1.45091 -0.391723 0
1.54502 -0.487841 0
1.50438 -0.484458 0
1.46451 -0.476453 0
1.49901 -0.437209 0
1.46153 -0.436725 0
1.42465 -0.43218 0
1.45091 -0.391723 0
1.41684 -0.393321 0
1.38307 -0.391129 0
1.52341 -0.375812 0
1.48751 -0.386042 0
1.45091 -0.391723 0
1.46627 -0.330534 0
1.43362 -0.340438 0
1.40008 -0.346542 0
1.40095 -0.289223 0
1.37084 -0.299116 0
1.33989 -0.305755 0
1.45091 -0.391723 0
1.41684 -0.393321 0
1.38307 -0.391129 0
1.40008 -0.346542 0
1.36832 -0.3492 0
1.3366 -0.34858 0
1.33989 -0.305755 0
1.31028 -0.309365 0
1.28065 -0.310085 0
1.51382 -0.216078 0
1.48844 -0.239224 0
1.46052 -0.259257 0
1.43555 -0.186012 0
1.41253 -0.206951 0
1.38712 -0.225209 0
1.35796 -0.157609 0
1.33689 -0.176513 0
1.31352 -0.193153 0
1.46052 -0.259257 0
1.43162 -0.275947 0
1.40095 -0.289223 0
1.38712 -0.225209 0
1.36077 -0.240572 0
1.33273 -0.253004 0
1.31352 -0.193153 0
1.28919 -0.207315 0
1.26322 -0.218965 0
1.35796 -0.157609 0
1.33689 -0.176513 0
1.31352 -0.193153 0
1.27958 -0.132217 0
1.26007 -0.148934 0
1.23838 -0.163734 0
1.19918 -0.10816 0
1.18091 -0.122925 0
1.16053 -0.136092 0
1.31352 -0.193153 0
1.28919 -0.207315 0
1.26322 -0.218965 0
1.23838 -0.163734 0
1.21568 -0.176435 0
1.19138 -0.187013 0
1.16053 -0.136092 0
1.13915 -0.147499 0
1.11619 -0.157116 0
1.40095 -0.289223 0
1.37084 -0.299116 0
1.33989 -0.305755 0
1.33273 -0.253004 0
1.30502 -0.262508 0
1.27644 -0.26918 0
1.26322 -0.218965 0
1.23736 -0.22808 0
1.21059 -0.234736 0
1.33989 -0.305755 0
1.31028 -0.309365 0
1.28065 -0.310085 0
1.27644 -0.26918 0
1.24885 -0.273197 0
1.22112 -0.274651 0
1.21059 -0.234736 0
1.18452 -0.239054 0
1.15821 -0.241112 0
1.26322 -0.218965 0
1.23736 -0.22808 0
1.21059 -0.234736 0
1.19138 -0.187013 0
1.16699 -0.195445 0
1.14166 -0.201778 0
1.11619 -0.157116 0
1.09304 -0.164913 0
1.06893 -0.170924 0
1.21059 -0.234736 0
1.18452 -0.239054 0
1.15821 -0.241112 0
1.14166 -0.201778 0
1.11681 -0.206114 0
1.09164 -0.208495 0
1.06893 -0.170924 0
1.04512 -0.175218 0
1.02095 -0.177826 0
1.46451 -0.476453 0
1.42987 -0.465465 0
1.3971 -0.450838 0
1.42465 -0.43218 0
1.39222 -0.424272 0
1.36135 -0.413515 0
1.38307 -0.391129 0
1.35275 -0.385851 0
1.32362 -0.377741 0
1.3971 -0.450838 0
1.36876 -0.434701 0
1.34267 -0.416586 0
1.36135 -0.413515 0
1.33423 -0.400707 0
1.30914 -0.385913 0
1.32362 -0.377741 0
1.29745 -0.367429 0
1.2729 -0.355104 0
1.38307 -0.391129 0
1.35275 -0.385851 0
1.32362 -0.377741 0
1.3366 -0.34858 0
1.30759 -0.345196 0
1.27945 -0.339241 0
1.28065 -0.310085 0
1.25322 -0.308296 0
1.22654 -0.304198 0
1.32362 -0.377741 0
1.29745 -0.367429 0
1.2729 -0.355104 0
1.27945 -0.339241 0
1.2538 -0.331287 0
1.22954 -0.32145 0
1.22654 -0.304198 0
1.20196 -0.298206 0
1.1786 -0.29043 0
1.34267 -0.416586 0
1.32066 -0.397683 0
1.30141 -0.377474 0
1.30914 -0.385913 0
1.28769 -0.369773 0
1.26859 -0.352486 0
1.2729 -0.355104 0
1.25139 -0.341361 0
1.23188 -0.326348 0
1.30141 -0.377474 0
1.28499 -0.357367 0
1.27085 -0.337344 0
1.26859 -0.352486 0
1.25189 -0.334523 0
1.23745 -0.315832 0
1.23188 -0.326348 0
1.21445 -0.310556 0
1.19906 -0.294291 0
1.2729 -0.355104 0
1.25139 -0.341361 0
1.23188 -0.326348 0
1.22954 -0.32145 0
1.20806 -0.310241 0
1.18839 -0.297793 0
1.1786 -0.29043 0
1.15764 -0.281269 0
1.13829 -0.270855 0
1.23188 -0.326348 0
1.21445 -0.310556 0
1.19906 -0.294291 0
1.18839 -0.297793 0
1.17071 -0.2845 0
1.15493 -0.270408 0
1.13829 -0.270855 0
1.12063 -0.259462 0
1.10464 -0.247206 0
1.28065 -0.310085 0
1.25322 -0.308296 0
1.22654 -0.304198 0
1.22112 -0.274651 0
1.19515 -0.273862 0
1.16973 -0.270988 0
1.15821 -0.241112 0
1.13328 -0.241161 0
1.10874 -0.239334 0
1.22654 -0.304198 0
1.20196 -0.298206 0
1.1786 -0.29043 0
1.16973 -0.270988 0
1.14601 -0.266371 0
1.12329 -0.260087 0
1.10874 -0.239334 0
1.08562 -0.235907 0
1.06336 -0.230959 0
1.15821 -0.241112 0
1.13328 -0.241161 0
1.10874 -0.239334 0
1.09164 -0.208495 0
1.06756 -0.209131 0
1.04376 -0.20811 0
1.02095 -0.177826 0
0.997619 -0.178908 0
0.974475 -0.178539 0
1.10874 -0.239334 0
1.08562 -0.235907 0
1.06336 -0.230959 0
1.04376 -0.20811 0
1.02115 -0.205665 0
0.999269 -0.201851 0
0.974475 -0.178539 0
0.952317 -0.176901 0
0.930764 -0.17404 0
1.1786 -0.29043 0
1.15764 -0.281269 0
1.13829 -0.270855 0
1.12329 -0.260087 0
1.10259 -0.252493 0
1.08326 -0.24373 0
1.06336 -0.230959 0
1.04284 -0.224794 0
1.02356 -0.217534 0
1.13829 -0.270855 0
1.12063 -0.259462 0
1.10464 -0.247206 0
1.08326 -0.24373 0
1.06547 -0.234066 0
1.04919 -0.223539 0
1.02356 -0.217534 0
1.00571 -0.209382 0
0.989262 -0.200387 0
1.06336 -0.230959 0
1.04284 -0.224794 0
1.02356 -0.217534 0
0.999269 -0.201851 0
0.978898 -0.196917 0
0.95962 -0.190955 0
0.930764 -0.17404 0
0.9105 -0.17016 0
0.891208 -0.16535 0
1.02356 -0.217534 0
1.00571 -0.209382 0
0.989262 -0.200387 0
0.95962 -0.190955 0
0.941611 -0.184149 0
0.924867 -0.176557 0
0.891208 -0.16535 0
0.873069 -0.159763 0
0.856112 -0.153443 0
1.19918 -0.10816 0
1.18091 -0.122925 0
1.16053 -0.136092 0
1.11731 -0.0868913 0
1.10015 -0.0996742 0
1.08095 -0.111128 0
1.0327 -0.0664784 0
1.01659 -0.0773842 0
0.998414 -0.0872117 0
1.16053 -0.136092 0
1.13915 -0.147499 0
1.11619 -0.157116 0
1.08095 -0.111128 0
1.06071 -0.121108 0
1.03892 -0.129588 0
0.998414 -0.0872117 0
0.979177 -0.0958343 0
0.958371 -0.103225 0
1.0327 -0.0664784 0
1.01659 -0.0773842 0
0.998414 -0.0872117 0
0.942434 -0.0482646 0
0.927605 -0.057206 0
0.910673 -0.0653021 0
0.840496 -0.031602 0
0.827491 -0.0385472 0
0.812243 -0.04488 0
0.998414 -0.0872117 0
0.979177 -0.0958343 0
0.958371 -0.103225 0
0.910673 -0.0653021 0
0.892588 -0.0724438 0
0.872877 -0.0786076 0
0.812243 -0.04488 0
0.795732 -0.050512 0
0.777492 -0.0554129 0
1.11619 -0.157116 0
1.09304 -0.164913 0
1.06893 -0.170924 0
1.03892 -0.129588 0
1.0168 -0.136535 0
0.993702 -0.141977 0
0.958371 -0.103225 0
0.937127 -0.109352 0
0.91486 -0.114233 0
1.06893 -0.170924 0
1.04512 -0.175218 0
1.02095 -0.177826 0
0.993702 -0.141977 0
0.970742 -0.145965 0
0.947347 -0.14852 0
0.91486 -0.114233 0
0.892605 -0.117905 0
0.869856 -0.120382 0
0.958371 -0.103225 0
0.937127 -0.109352 0
0.91486 -0.114233 0
0.872877 -0.0786076 0
0.852601 -0.0837652 0
0.831233 -0.0879225 0
0.777492 -0.0554129 0
0.758539 -0.0595598 0
0.738398 -0.062947 0
0.91486 -0.114233 0
0.892605 -0.117905 0
0.869856 -0.120382 0
0.831233 -0.0879225 0
0.809742 -0.0911101 0
0.787676 -0.0933309 0
0.738398 -0.062947 0
0.717987 -0.065599 0
0.696911 -0.0675083 0
0.840496 -0.031602 0
0.827491 -0.0385472 0
0.812243 -0.04488 0
0.715982 -0.0181113 0
0.705799 -0.0229249 0
0.693271 -0.0273454 0
0.55032 -0.00733125 0
0.543854 -0.010006 0
0.53511 -0.0124851 0
0.812243 -0.04488 0
0.795732 -0.050512 0
0.777492 -0.0554129 0
0.693271 -0.0273454 0
0.679314 -0.0313081 0
0.663497 -0.0347795 0
0.53511 -0.0124851 0
0.524902 -0.0147366 0
0.512854 -0.0167269 0
0.55032 -0.00733125 0
0.543854 -0.010006 0
0.53511 -0.0124851 0
0.319926 -0.00198635 0
0.317243 -0.00281599 0
0.312833 -0.00358135 0
0 0 0
0 0 0
0 0 0
0.53511 -0.0124851 0
0.524902 -0.0147366 0
0.512854 -0.0167269 0
0.312833 -0.00358135 0
0.30742 -0.00428557 0
0.300554 -0.00489622 0
0 0 0
0 0 0
0 0 0
0.777492 -0.0554129 0
0.758539 -0.0595598 0
0.738398 -0.062947 0
0.663497 -0.0347795 0
0.646781 -0.0377443 0
0.628742 -0.0401866 0
0.512854 -0.0167269 0
0.499788 -0.0184566 0
0.485372 -0.0198982 0
0.738398 -0.062947 0
0.717987 -0.065599 0
0.696911 -0.0675083 0
0.628742 -0.0401866 0
0.610252 -0.0421279 0