# vtk DataFile Version 3.0
#This file was generated by the deal.II library on 2025/1/2 at 0:45:12
ASCII
DATASET UNSTRUCTURED_GRID

POINTS 34560 double
1.1 1.1 0
1.03125 1.09531 0
0.9625 1.09063 0
1.09375 1.03125 0
1.02539 1.02686 0
0.957031 1.02246 0
1.0875 0.9625 0
1.01953 0.958398 0
0.951563 0.954297 0
0.9625 1.09063 0
0.89375 1.08594 0
0.825 1.08125 0
0.957031 1.02246 0
0.888672 1.01807 0
0.820312 1.01367 0
0.951563 0.954297 0
0.883594 0.950195 0
0.815625 0.946094 0
1.0875 0.9625 0
1.01953 0.958398 0
0.951563 0.954297 0
1.08125 0.89375 0
1.01367 0.889941 0
0.946094 0.886133 0
1.075 0.825 0
1.00781 0.821484 0
0.940625 0.817969 0
0.951563 0.954297 0
0.883594 0.950195 0
0.815625 0.946094 0
0.946094 0.886133 0
0.878516 0.882324 0
0.810938 0.878516 0
0.940625 0.817969 0
0.873438 0.814453 0
0.80625 0.810937 0
0.825 1.08125 0
0.75625 1.07656 0
0.6875 1.07187 0
0.820312 1.01367 0
0.751953 1.00928 0
0.683594 1.00488 0
0.815625 0.946094 0
0.747656 0.941992 0
0.679688 0.937891 0
0.6875 1.07187 0
0.61875 1.06719 0
0.55 1.0625 0
0.683594 1.00488 0
0.615234 1.00049 0
0.546875 0.996094 0
0.679688 0.937891 0
0.611719 0.933789 0
0.54375 0.929688 0
0.815625 0.946094 0
0.747656 0.941992 0
0.679688 0.937891 0
0.810938 0.878516 0
0.743359 0.874707 0
0.675781 0.870898 0
0.80625 0.810937 0
0.739063 0.807422 0
0.671875 0.803906 0
0.679688 0.937891 0
0.611719 0.933789 0
0.54375 0.929688 0
0.675781 0.870898 0
0.608203 0.86709 0
0.540625 0.863281 0
0.671875 0.803906 0
0.604688 0.800391 0
0.5375 0.796875 0
1.075 0.825 0
1.00781 0.821484 0
0.940625 0.817969 0
1.06875 0.75625 0
1.00195 0.753027 0
0.935156 0.749805 0
1.0625 0.6875 0
0.996094 0.68457 0
0.929688 0.681641 0
0.940625 0.817969 0
0.873438 0.814453 0
0.80625 0.810937 0
0.935156 0.749805 0
0.868359 0.746582 0
0.801563 0.743359 0
0.929688 0.681641 0
0.863281 0.678711 0
0.796875 0.675781 0
1.0625 0.6875 0
0.996094 0.68457 0
0.929688 0.681641 0
1.05625 0.61875 0
0.990234 0.616113 0
0.924219 0.613477 0
1.05 0.55 0
0.984375 0.547656 0
0.91875 0.545313 0
0.929688 0.681641 0
0.863281 0.678711 0
0.796875 0.675781 0
0.924219 0.613477 0
0.858203 0.61084 0
0.792188 0.608203 0
0.91875 0.545313 0
0.853125 0.542969 0
0.7875 0.540625 0
0.80625 0.810937 0
0.739063 0.807422 0
0.671875 0.803906 0
0.801563 0.743359 0
0.734766 0.740137 0
0.667969 0.736914 0
0.796875 0.675781 0
0.730469 0.672852 0
0.664062 0.669922 0
0.671875 0.803906 0
0.604688 0.800391 0
0.5375 0.796875 0
0.667969 0.736914 0
0.601172 0.733691 0
0.534375 0.730469 0
0.664062 0.669922 0
0.597656 0.666992 0
0.53125 0.664062 0
0.796875 0.675781 0
0.730469 0.672852 0
0.664062 0.669922 0
0.792188 0.608203 0
0.726172 0.605566 0
0.660156 0.60293 0
0.7875 0.540625 0
0.721875 0.538281 0
0.65625 0.535937 0
0.664062 0.669922 0
0.597656 0.666992 0
0.53125 0.664062 0
0.660156 0.60293 0
0.594141 0.600293 0
0.528125 0.597656 0
0.65625 0.535937 0
0.590625 0.533594 0
0.525 0.53125 0
0.55 1.0625 0
0.48125 1.05781 0
0.4125 1.05313 0
0.546875 0.996094 0
0.478516 0.991699 0
0.410156 0.987305 0
0.54375 0.929688 0
0.475781 0.925586 0
0.407813 0.921484 0
0.4125 1.05313 0
0.34375 1.04844 0
0.275 1.04375 0
0.410156 0.987305 0
0.341797 0.98291 0
0.273438 0.978516 0
0.407813 0.921484 0
0.339844 0.917383 0
0.271875 0.913281 0
0.54375 0.929688 0
0.475781 0.925586 0
0.407813 0.921484 0
0.540625 0.863281 0
0.473047 0.859473 0
0.405469 0.855664 0
0.5375 0.796875 0
0.470313 0.793359 0
0.403125 0.789844 0
0.407813 0.921484 0
0.339844 0.917383 0
0.271875 0.913281 0
0.405469 0.855664 0
0.337891 0.851855 0
0.270313 0.848047 0
0.403125 0.789844 0
0.335938 0.786328 0
0.26875 0.782813 0
0.275 1.04375 0
0.20625 1.03906 0
0.1375 1.03437 0
0.273438 0.978516 0
0.205078 0.974121 0
0.136719 0.969727 0
0.271875 0.913281 0
0.203906 0.90918 0
0.135938 0.905078 0
0.1375 1.03437 0
0.06875 1.02969 0
0 1.025 0
0.136719 0.969727 0
0.0683594 0.965332 0
0 0.960937 0
0.135938 0.905078 0
0.0679688 0.900977 0
0 0.896875 0
0.271875 0.913281 0
0.203906 0.90918 0
0.135938 0.905078 0
0.270313 0.848047 0
0.202734 0.844238 0
0.135156 0.84043 0
0.26875 0.782813 0
0.201563 0.779297 0
0.134375 0.775781 0
0.135938 0.905078 0
0.0679688 0.900977 0
0 0.896875 0
0.135156 0.84043 0
0.0675781 0.836621 0
0 0.832812 0
0.134375 0.775781 0
0.0671875 0.772266 0
0 0.76875 0
0.5375 0.796875 0
0.470313 0.793359 0
0.403125 0.789844 0
0.534375 0.730469 0
0.467578 0.727246 0
0.400781 0.724023 0
0.53125 0.664062 0
0.464844 0.661133 0
0.398438 0.658203 0
0.403125 0.789844 0
0.335938 0.786328 0
0.26875 0.782813 0
0.400781 0.724023 0
0.333984 0.720801 0
0.267188 0.717578 0
0.398438 0.658203 0
0.332031 0.655273 0
0.265625 0.652344 0
0.53125 0.664062 0
0.464844 0.661133 0
0.398438 0.658203 0
0.528125 0.597656 0
0.462109 0.59502 0
0.396094 0.592383 0
0.525 0.53125 0
0.459375 0.528906 0
0.39375 0.526563 0
0.398438 0.658203 0
0.332031 0.655273 0
0.265625 0.652344 0
0.396094 0.592383 0
0.330078 0.589746 0
0.264062 0.587109 0
0.39375 0.526563 0
0.328125 0.524219 0
0.2625 0.521875 0
0.26875 0.782813 0
0.201563 0.779297 0
0.134375 0.775781 0
0.267188 0.717578 0
0.200391 0.714355 0
0.133594 0.711133 0
0.265625 0.652344 0
0.199219 0.649414 0
0.132812 0.646484 0
0.134375 0.775781 0
0.0671875 0.772266 0
0 0.76875 0
0.133594 0.711133 0
0.0667969 0.70791 0
0 0.704687 0
0.132812 0.646484 0
0.0664062 0.643555 0
0 0.640625 0
0.265625 0.652344 0
0.199219 0.649414 0
0.132812 0.646484 0
0.264062 0.587109 0
0.198047 0.584473 0
0.132031 0.581836 0
0.2625 0.521875 0
0.196875 0.519531 0
0.13125 0.517187 0
0.132812 0.646484 0
0.0664062 0.643555 0
0 0.640625 0
0.132031 0.581836 0
0.0660156 0.579199 0
0 0.576562 0
0.13125 0.517187 0
0.065625 0.514844 0
0 0.5125 0
1.05 0.55 0
0.984375 0.547656 0
0.91875 0.545313 0
1.04375 0.48125 0
0.978516 0.479199 0
0.913281 0.477148 0
1.0375 0.4125 0
0.972656 0.410742 0
0.907813 0.408984 0
0.91875 0.545313 0
0.853125 0.542969 0
0.7875 0.540625 0
0.913281 0.477148 0
0.848047 0.475098 0
0.782813 0.473047 0
0.907813 0.408984 0
0.842969 0.407227 0
0.778125 0.405469 0
1.0375 0.4125 0
0.972656 0.410742 0
0.907813 0.408984 0
1.03125 0.34375 0
0.966797 0.342285 0
0.902344 0.34082 0
1.025 0.275 0
0.960937 0.273828 0
0.896875 0.272656 0
0.907813 0.408984 0
0.842969 0.407227 0
0.778125 0.405469 0
0.902344 0.34082 0
0.837891 0.339355 0
0.773438 0.337891 0
0.896875 0.272656 0
0.832812 0.271484 0
0.76875 0.270313 0
0.7875 0.540625 0
0.721875 0.538281 0
0.65625 0.535937 0
0.782813 0.473047 0
0.717578 0.470996 0
0.652344 0.468945 0
0.778125 0.405469 0
0.713281 0.403711 0
0.648438 0.401953 0
0.65625 0.535937 0
0.590625 0.533594 0
0.525 0.53125 0
0.652344 0.468945 0
0.587109 0.466895 0
0.521875 0.464844 0
0.648438 0.401953 0
0.583594 0.400195 0
0.51875 0.398438 0
0.778125 0.405469 0
0.713281 0.403711 0
0.648438 0.401953 0
0.773438 0.337891 0
0.708984 0.336426 0
0.644531 0.334961 0
0.76875 0.270313 0
0.704687 0.269141 0
0.640625 0.267969 0
0.648438 0.401953 0
0.583594 0.400195 0
0.51875 0.398438 0
0.644531 0.334961 0
0.580078 0.333496 0
0.515625 0.332031 0
0.640625 0.267969 0
0.576562 0.266797 0
0.5125 0.265625 0
1.025 0.275 0
0.960937 0.273828 0
0.896875 0.272656 0
1.01875 0.20625 0
0.955078 0.205371 0
0.891406 0.204492 0
1.0125 0.1375 0
0.949219 0.136914 0
0.885937 0.136328 0
0.896875 0.272656 0
0.832812 0.271484 0
0.76875 0.270313 0
0.891406 0.204492 0
0.827734 0.203613 0
0.764062 0.202734 0
0.885937 0.136328 0
0.822656 0.135742 0
0.759375 0.135156 0
1.0125 0.1375 0
0.949219 0.136914 0
0.885937 0.136328 0
1.00625 0.06875 0
0.943359 0.068457 0
0.880469 0.0681641 0
1 0 0
0.9375 0 0
0.875 0 0
0.885937 0.136328 0
0.822656 0.135742 0
0.759375 0.135156 0
0.880469 0.0681641 0
0.817578 0.0678711 0
0.754687 0.0675781 0
0.875 0 0
0.8125 0 0
0.75 0 0
0.76875 0.270313 0
0.704687 0.269141 0
0.640625 0.267969 0
0.764062 0.202734 0
0.700391 0.201855 0
0.636719 0.200977 0
0.759375 0.135156 0
0.696094 0.13457 0
0.632812 0.133984 0
0.640625 0.267969 0
0.576562 0.266797 0
0.5125 0.265625 0
0.636719 0.200977 0
0.573047 0.200098 0
0.509375 0.199219 0
0.632812 0.133984 0
0.569531 0.133398 0
0.50625 0.132812 0
0.759375 0.135156 0
0.696094 0.13457 0
0.632812 0.133984 0
0.754687 0.0675781 0
0.691797 0.0672852 0
0.628906 0.0669922 0
0.75 0 0
0.6875 0 0
0.625 0 0
0.632812 0.133984 0
0.569531 0.133398 0
0.50625 0.132812 0
0.628906 0.0669922 0
0.566016 0.0666992 0
0.503125 0.0664062 0
0.625 0 0
0.5625 0 0
0.5 0 0
0.525 0.53125 0
0.459375 0.528906 0
0.39375 0.526563 0
0.521875 0.464844 0
0.456641 0.462793 0
0.391406 0.460742 0
0.51875 0.398438 0
0.453906 0.39668 0
0.389063 0.394922 0
0.39375 0.526563 0
0.328125 0.524219 0
0.2625 0.521875 0
0.391406 0.460742 0
0.326172 0.458691 0
0.260938 0.456641 0
0.389063 0.394922 0
0.324219 0.393164 0
0.259375 0.391406 0
0.51875 0.398438 0
0.453906 0.39668 0
0.389063 0.394922 0
0.515625 0.332031 0
0.451172 0.330566 0
0.386719 0.329102 0
0.5125 0.265625 0
0.448437 0.264453 0
0.384375 0.263281 0
0.389063 0.394922 0
0.324219 0.393164 0
0.259375 0.391406 0
0.386719 0.329102 0
0.322266 0.327637 0
0.257812 0.326172 0
0.384375 0.263281 0
0.320312 0.262109 0
0.25625 0.260937 0
0.2625 0.521875 0
0.196875 0.519531 0
0.13125 0.517187 0
0.260938 0.456641 0
0.195703 0.45459 0
0.130469 0.452539 0
0.259375 0.391406 0
0.194531 0.389648 0
0.129688 0.387891 0
0.13125 0.517187 0
0.065625 0.514844 0
0 0.5125 0
0.130469 0.452539 0
0.0652344 0.450488 0
0 0.448437 0
0.129688 0.387891 0
0.0648438 0.386133 0
0 0.384375 0
0.259375 0.391406 0
0.194531 0.389648 0
0.129688 0.387891 0
0.257812 0.326172 0
0.193359 0.324707 0
0.128906 0.323242 0
0.25625 0.260937 0
0.192187 0.259766 0
0.128125 0.258594 0
0.129688 0.387891 0
0.0648438 0.386133 0
0 0.384375 0
0.128906 0.323242 0
0.0644531 0.321777 0
0 0.320312 0
0.128125 0.258594 0
0.0640625 0.257422 0
0 0.25625 0
0.5125 0.265625 0
0.448437 0.264453 0
0.384375 0.263281 0
0.509375 0.199219 0
0.445703 0.19834 0
0.382031 0.197461 0
0.50625 0.132812 0
0.442969 0.132227 0
0.379688 0.131641 0
0.384375 0.263281 0
0.320312 0.262109 0
0.25625 0.260937 0
0.382031 0.197461 0
0.318359 0.196582 0
0.254687 0.195703 0
[...]
POINT_DATA 34560
VECTORS v double
1.26104 -0.330212 0
1.24335 -0.299692 0
1.22787 -0.271282 0
1.22777 -0.309633 0
1.20836 -0.282655 0
1.19142 -0.256673 0
1.18951 -0.288888 0
1.16902 -0.2646 0
1.15067 -0.240942 0
1.22787 -0.271282 0
1.21423 -0.243888 0
1.20253 -0.218179 0
1.19142 -0.256673 0
1.17606 -0.231619 0
1.16297 -0.207776 0
1.15067 -0.240942 0
1.1341 -0.218041 0
1.1196 -0.195993 0
1.18951 -0.288888 0
1.16902 -0.2646 0
1.15067 -0.240942 0
1.14547 -0.265839 0
1.12396 -0.244324 0
1.10458 -0.223211 0
1.09532 -0.243362 0
1.07329 -0.224375 0
1.05324 -0.205553 0
1.15067 -0.240942 0
1.1341 -0.218041 0
1.1196 -0.195993 0
1.10458 -0.223211 0
1.08695 -0.202585 0
1.07138 -0.182593 0
1.05324 -0.205553 0
1.03496 -0.187022 0
1.01866 -0.168919 0
1.20253 -0.218179 0
1.19179 -0.193715 0
1.18267 -0.170688 0
1.16297 -0.207776 0
1.15071 -0.184933 0
1.14038 -0.163305 0
1.1196 -0.195993 0
1.10617 -0.174814 0
1.09459 -0.154588 0
1.18267 -0.170688 0
1.174 -0.148908 0
1.16661 -0.128378 0
1.14038 -0.163305 0
1.13044 -0.14269 0
1.12207 -0.123204 0
1.09459 -0.154588 0
1.08363 -0.135259 0
1.07425 -0.116886 0
1.1196 -0.195993 0
1.10617 -0.174814 0
1.09459 -0.154588 0
1.07138 -0.182593 0
1.05699 -0.163232 0
1.04443 -0.144635 0
1.01866 -0.168919 0
1.0036 -0.151285 0
0.990332 -0.134242 0
1.09459 -0.154588 0
1.08363 -0.135259 0
1.07425 -0.116886 0
1.04443 -0.144635 0
1.03268 -0.12676 0
1.0225 -0.109685 0
0.990332 -0.134242 0
0.977987 -0.117789 0
0.967207 -0.102001 0
1.09532 -0.243362 0
1.07329 -0.224375 0
1.05324 -0.205553 0
1.03998 -0.220381 0
1.01764 -0.203766 0
0.99721 -0.187149 0
0.980124 -0.197836 0
0.957679 -0.183359 0
0.936998 -0.168766 0
1.05324 -0.205553 0
1.03496 -0.187022 0
1.01866 -0.168919 0
0.99721 -0.187149 0
0.978484 -0.170655 0
0.961647 -0.154435 0
0.936998 -0.168766 0
0.917966 -0.15419 0
0.900738 -0.139768 0
0.980124 -0.197836 0
0.957679 -0.183359 0
0.936998 -0.168766 0
0.915766 -0.174567 0
0.89327 -0.162149 0
0.872464 -0.149555 0
0.847057 -0.151941 0
0.824675 -0.141415 0
0.803881 -0.130672 0
0.936998 -0.168766 0
0.917966 -0.15419 0
0.900738 -0.139768 0
0.872464 -0.149555 0
0.853239 -0.136899 0
0.83576 -0.124303 0
0.803881 -0.130672 0
0.784602 -0.119809 0
0.766998 -0.108942 0
1.01866 -0.168919 0
1.0036 -0.151285 0
0.990332 -0.134242 0
0.961647 -0.154435 0
0.946095 -0.138545 0
0.932292 -0.123104 0
0.900738 -0.139768 0
0.884826 -0.125564 0
0.870615 -0.111691 0
0.990332 -0.134242 0
0.977987 -0.117789 0
0.967207 -0.102001 0
0.932292 -0.123104 0
0.919507 -0.10813 0
0.90827 -0.0937044 0
0.870615 -0.111691 0
0.857505 -0.0981868 0
0.845928 -0.085126 0
0.900738 -0.139768 0
0.884826 -0.125564 0
0.870615 -0.111691 0
0.83576 -0.124303 0
0.819608 -0.111828 0
0.805125 -0.0995832 0
0.766998 -0.108942 0
0.75072 -0.0981269 0
0.736073 -0.0874619 0
0.870615 -0.111691 0
0.857505 -0.0981868 0
0.845928 -0.085126 0
0.805125 -0.0995832 0
0.7918 -0.0876085 0
0.780003 -0.0759828 0
0.736073 -0.0874619 0
0.72263 -0.076993 0
0.710706 -0.0667925 0
1.16661 -0.128378 0
1.15947 -0.108998 0
1.15334 -0.0907163 0
1.12207 -0.123204 0
1.11396 -0.104702 0
1.10708 -0.0872219 0
1.07425 -0.116886 0
1.06532 -0.0993999 0
1.05768 -0.0828278 0
1.15334 -0.0907163 0
1.14736 -0.0734607 0
1.14215 -0.0571509 0
1.10708 -0.0872219 0
1.1004 -0.0706629 0
1.09469 -0.0549997 0
1.05768 -0.0828278 0
1.05042 -0.0671054 0
1.04421 -0.0522116 0
1.07425 -0.116886 0
1.06532 -0.0993999 0
1.05768 -0.0828278 0
1.0225 -0.109685 0
1.01295 -0.0933692 0
1.00471 -0.0778566 0
0.967207 -0.102001 0
0.957184 -0.0868747 0
0.948488 -0.0724504 0
1.05768 -0.0828278 0
1.05042 -0.0671054 0
1.04421 -0.0522116 0
1.00471 -0.0778566 0
0.997026 -0.0631071 0
0.990428 -0.0491077 0
0.948488 -0.0724504 0
0.940481 -0.0587169 0
0.933596 -0.0456676 0
1.14215 -0.0571509 0
1.13715 -0.0417239 0
1.13277 -0.027096 0
1.09469 -0.0549997 0
1.08927 -0.0401659 0
1.08461 -0.0261001 0
1.04421 -0.0522116 0
1.03843 -0.0380993 0
1.03352 -0.0247255 0
1.13277 -0.027096 0
1.12863 -0.0132084 0
1.125 0 0
1.08461 -0.0261001 0
1.08032 -0.0127451 0
1.07666 0 0
1.03352 -0.0247255 0
1.02909 -0.012044 0
1.02539 0 0
1.04421 -0.0522116 0
1.03843 -0.0380993 0
1.03352 -0.0247255 0
0.990428 -0.0491077 0
0.984415 -0.0358322 0
0.979319 -0.0232536 0
0.933596 -0.0456676 0
0.927406 -0.0332981 0
0.922179 -0.0215842 0
1.03352 -0.0247255 0
1.02909 -0.012044 0
1.02539 0 0
0.979319 -0.0232536 0
0.974854 -0.0113345 0
0.971191 0 0
0.922179 -0.0215842 0
0.917693 -0.0105029 0
0.914062 0 0
0.967207 -0.102001 0
0.957184 -0.0868747 0
0.948488 -0.0724504 0
0.90827 -0.0937044 0
0.897898 -0.0798408 0
0.888862 -0.0665857 0
0.845928 -0.085126 0
0.835306 -0.0725435 0
0.826026 -0.0604852 0
0.948488 -0.0724504 0
0.940481 -0.0587169 0
0.933596 -0.0456676 0
0.888862 -0.0665857 0
0.880629 -0.053948 0
0.873547 -0.0419311 0
0.826026 -0.0604852 0
0.817648 -0.0489801 0
0.810445 -0.0380366 0
0.845928 -0.085126 0
0.835306 -0.0725435 0
0.826026 -0.0604852 0
0.780003 -0.0759828 0
0.769234 -0.0647485 0
0.759818 -0.0539561 0
0.710706 -0.0667925 0
0.699875 -0.0569107 0
0.690405 -0.0473961 0
0.826026 -0.0604852 0
0.817648 -0.0489801 0
0.810445 -0.0380366 0
0.759818 -0.0539561 0
0.751382 -0.0436461 0
0.744142 -0.0338387 0
0.690405 -0.0473961 0
0.681984 -0.0383026 0
0.674779 -0.0296546 0
0.933596 -0.0456676 0
0.927406 -0.0332981 0
0.922179 -0.0215842 0
0.873547 -0.0419311 0
0.867257 -0.0305433 0
0.86197 -0.0197701 0
0.810445 -0.0380366 0
0.804113 -0.0276782 0
0.798815 -0.0178948 0
0.922179 -0.0215842 0
0.917693 -0.0105029 0
0.914062 0 0
0.86197 -0.0197701 0
0.857531 -0.00960177 0
0.854004 0 0
0.798815 -0.0178948 0
0.794444 -0.00868641 0
0.791016 0 0
0.810445 -0.0380366 0
0.804113 -0.0276782 0
0.798815 -0.0178948 0
0.744142 -0.0338387 0
0.737841 -0.0245671 0
0.732599 -0.0158317 0
0.674779 -0.0296546 0
0.668566 -0.0214973 0
0.663431 -0.0138345 0
0.798815 -0.0178948 0
0.794444 -0.00868641 0
0.791016 0 0
0.732599 -0.0158317 0
0.728357 -0.00764397 0
0.725098 0 0
0.663431 -0.0138345 0
0.659343 -0.00668665 0
0.65625 0 0
0.847057 -0.151941 0
0.824675 -0.141415 0
0.803881 -0.130672 0
0.774441 -0.128956 0
0.752199 -0.120199 0
0.731475 -0.111219 0
0.697773 -0.106482 0
0.675774 -0.0993837 0
0.655208 -0.0920746 0
0.803881 -0.130672 0
0.784602 -0.119809 0
0.766998 -0.108942 0
0.731475 -0.111219 0
0.712188 -0.102098 0
0.694523 -0.0929381 0
0.655208 -0.0920746 0
0.636012 -0.0846189 0
0.618379 -0.0771081 0
0.697773 -0.106482 0
0.675774 -0.0993837 0
0.655208 -0.0920746 0
0.616808 -0.0837103 0
0.595128 -0.0781688 0
0.574828 -0.0724527 0
0.529572 -0.0616318 0
0.50856 -0.057568 0
0.488857 -0.0533736 0
0.655208 -0.0920746 0
0.636012 -0.0846189 0
0.618379 -0.0771081 0
0.574828 -0.0724527 0
0.555825 -0.0666078 0
0.538337 -0.0607128 0
0.488857 -0.0533736 0
0.470381 -0.0490752 0
0.453358 -0.0447421 0
0.766998 -0.108942 0
0.75072 -0.0981269 0
0.736073 -0.0874619 0
0.694523 -0.0929381 0
0.678175 -0.0837878 0
0.663432 -0.0747308 0
0.618379 -0.0771081 0
0.60205 -0.0695782 0
0.587296 -0.062103 0
0.736073 -0.0874619 0
0.72263 -0.076993 0
0.710706 -0.0667925 0
0.663432 -0.0747308 0
0.649932 -0.0658078 0
0.637951 -0.0570851 0
0.587296 -0.062103 0
0.573812 -0.054715 0
0.561847 -0.0474724 0
0.618379 -0.0771081 0
0.60205 -0.0695782 0
0.587296 -0.062103 0
0.538337 -0.0607128 0
0.52213 -0.054792 0
0.507471 -0.0489067 0
0.453358 -0.0447421 0
0.437579 -0.0403853 0
0.423299 -0.0360564 0
0.587296 -0.062103 0
0.573812 -0.054715 0
0.561847 -0.0474724 0
0.507471 -0.0489067 0
0.494096 -0.0430793 0
0.482239 -0.037357 0
0.423299 -0.0360564 0
0.41029 -0.0317665 0
0.398771 -0.0275538 0
0.529572 -0.0616318 0
0.50856 -0.057568 0
0.488857 -0.0533736 0
0.432601 -0.0400939 0
0.412904 -0.037388 0
0.394468 -0.0346068 0
0.317951 -0.0206733 0
0.301268 -0.0192615 0
0.285706 -0.0178214 0
0.488857 -0.0533736 0
0.470381 -0.0490752 0
0.453358 -0.0447421 0
0.394468 -0.0346068 0
0.37717 -0.0317599 0
0.361262 -0.0289032 0
0.285706 -0.0178214 0
0.271134 -0.016339 0
0.257788 -0.0148618 0
0.317951 -0.0206733 0
0.301268 -0.0192615 0
0.285706 -0.0178214 0
0.175221 -0.00601984 0
0.164654 -0.00557331 0
0.154932 -0.00513458 0
0 0 0
0 0 0
0 0 0
0.285706 -0.0178214 0
0.271134 -0.016339 0
0.257788 -0.0148618 0
0.154932 -0.00513458 0
0.14582 -0.00467292 0
0.13759 -0.0042284 0
0 0 0
0 0 0
0 0 0
0.453358 -0.0447421 0
0.437579 -0.0403853 0
0.423299 -0.0360564 0
0.361262 -0.0289032 0
0.346527 -0.0260365 0
0.333218 -0.0232001 0
0.257788 -0.0148618 0
0.245461 -0.0133778 0
0.234374 -0.011919 0
0.423299 -0.0360564 0
0.41029 -0.0317665 0
0.398771 -0.0275538 0
0.333218 -0.0232001 0
0.321117 -0.020396 0
0.310432 -0.0176525 0
0.234374 -0.011919 0
0.224328 -0.010478 0
0.215496 -0.00907703 0
0.257788 -0.0148618 0
0.245461 -0.0133778 0
0.234374 -0.011919 0
0.13759 -0.0042284 0
0.12999 -0.00377652 0
0.123251 -0.00334492 0
0 0 0
0 0 0
0 0 0
0.234374 -0.011919 0
0.224328 -0.010478 0
0.215496 -0.00907703 0
0.123251 -0.00334492 0
0.117144 -0.00291551 0
0.111849 -0.00250827 0
0 0 0
0 0 0
0 0 0
0.710706 -0.0667925 0
0.699875 -0.0569107 0
0.690405 -0.0473961 0
0.637951 -0.0570851 0
0.627122 -0.0486107 0
0.617674 -0.0404318 0
0.561847 -0.0474724 0
0.551088 -0.0404173 0
0.541731 -0.0335923 0
0.690405 -0.0473961 0
0.681984 -0.0383026 0
0.674779 -0.0296546 0
0.617674 -0.0404318 0
0.609336 -0.0326052 0
0.602237 -0.0251644 0
0.541731 -0.0335923 0
0.533539 -0.027055 0
0.526613 -0.0208404 0
0.561847 -0.0474724 0
0.551088 -0.0404173 0
0.541731 -0.0335923 0
0.482239 -0.037357 0
0.47163 -0.031771 0
0.462443 -0.0263551 0
0.398771 -0.0275538 0
0.388511 -0.023436 0
0.379669 -0.0194366 0
0.541731 -0.0335923 0
0.533539 -0.027055 0
0.526613 -0.0208404 0
0.462443 -0.0263551 0
0.454473 -0.0211578 0
0.447798 -0.016214 0
0.379669 -0.0194366 0
0.372068 -0.0155896 0
0.365772 -0.011926 0
0.674779 -0.0296546 0
0.668566 -0.0214973 0
0.663431 -0.0138345 0
0.602237 -0.0251644 0
0.596175 -0.0181618 0
0.591211 -0.0116127 0
0.526613 -0.0208404 0
0.520763 -0.0150087 0
0.516023 -0.00957885 0
0.663431 -0.0138345 0
0.659343 -0.00668665 0
0.65625 0 0
0.591211 -0.0116127 0
0.587332 -0.00554771 0
0.584473 0 0
0.516023 -0.00957885 0
0.512388 -0.00459404 0
0.509766 0 0
0.526613 -0.0208404 0
0.520763 -0.0150087 0
0.516023 -0.00957885 0
0.447798 -0.016214 0
0.442231 -0.0115827 0
0.437786 -0.00729865 0
0.365772 -0.011926 0
0.3606 -0.00849758 0
0.356542 -0.00533341 0
0.516023 -0.00957885 0
0.512388 -0.00459404 0
0.509766 0 0
0.437786 -0.00729865 0
0.43445 -0.00341309 0
0.432129 0 0
0.356542 -0.00533341 0
0.353565 -0.00251158 0
0.351562 0 0
0.398771 -0.0275538 0
0.388511 -0.023436 0
0.379669 -0.0194366 0
0.310432 -0.0176525 0
0.300957 -0.0149768 0
0.292837 -0.0123796 0
0.215496 -0.00907703 0
0.207701 -0.00771281 0
0.201062 -0.00639136 0
0.379669 -0.0194366 0
0.372068 -0.0155896 0
0.365772 -0.011926 0
0.292837 -0.0123796 0
0.285913 -0.00987898 0
0.28025 -0.00749574 0
0.201062 -0.00639136 0
0.19544 -0.00511553 0
0.190895 -0.00390054 0
0.215496 -0.00907703 0
0.207701 -0.00771281 0
0.201062 -0.00639136 0
0.111849 -0.00250827 0
0.107179 -0.00211225 0
0.103257 -0.00173378 0
0 0 0
0 0 0
0 0 0
0.201062 -0.00639136 0
0.19544 -0.00511553 0
0.190895 -0.00390054 0
0.103257 -0.00173378 0
0.0999414 -0.00136541 0
0.0972986 -0.0010205 0
0 0 0
0 0 0
0 0 0
0.365772 -0.011926 0
0.3606 -0.00849758 0
0.356542 -0.00533341 0
0.28025 -0.00749574 0
0.275679 -0.00526177 0
0.272184 -0.003203 0
0.190895 -0.00390054 0
0.187298 -0.00275732 0
0.184634 -0.00168585 0
0.356542 -0.00533341 0
0.353565 -0.00251158 0
0.351562 0 0
0.272184 -0.003203 0
0.269682 -0.00138752 0
0.268066 0 0
0.184634 -0.00168585 0
0.182788 -0.000754627 0
0.181641 0 0
0.190895 -0.00390054 0
0.187298 -0.00275732 0
0.184634 -0.00168585 0
0.0972986 -0.0010205 0
0.0952332 -0.000700796 0
0.0937849 -0.000393945 0
0 0 0
0 0 0
0 0 0
0.184634 -0.00168585 0
0.182788 -0.000754627 0
0.181641 0 0
0.0937849 -0.000393945 0
0.0928155 -0.000100487 0
0.0922852 0 0
0 0 0
0 0 0
0 0 0
1.7952 -0.423435 0
1.75305 -0.452508 0
1.70779 -0.475511 0
1.72713 -0.370501 0
1.68879 -0.397759 0
1.64783 -0.4197 0
1.65319 -0.324057 0
1.61967 -0.349526 0
1.58361 -0.370496 0
1.70779 -0.475511 0
1.66228 -0.491752 0
1.61509 -0.501752 0
1.64783 -0.4197 0
1.60649 -0.43614 0
1.56367 -0.447092 0
1.58361 -0.370496 0
1.54703 -0.386846 0
1.50899 -0.398432 0
1.65319 -0.324057 0
1.61967 -0.349526 0
1.58361 -0.370496 0
1.58337 -0.285711 0
1.55344 -0.308121 0
1.52124 -0.326855 0
1.51065 -0.248147 0
1.48291 -0.268561 0
1.45309 -0.285822 0
1.58361 -0.370496 0
1.54703 -0.386846 0
1.50899 -0.398432 0
1.52124 -0.326855 0
1.48828 -0.341702 0
1.45387 -0.352597 0
1.45309 -0.285822 0
1.4226 -0.299787 0
1.39077 -0.310372 0
1.61509 -0.501752 0
1.57082 -0.505648 0
1.52644 -0.503623 0
1.56367 -0.447092 0
1.52317 -0.452732 0
1.48249 -0.45356 0
1.50899 -0.398432 0
1.47262 -0.405502 0
1.43596 -0.408184 0
1.52644 -0.503623 0
1.48644 -0.497252 0
1.44748 -0.486446 0
1.48249 -0.45356 0
1.44533 -0.450139 0
1.40904 -0.442825 0
1.43596 -0.408184 0
1.40189 -0.406979 0
1.36844 -0.402131 0
1.50899 -0.398432 0
1.47262 -0.405502 0
1.43596 -0.408184 0
1.45387 -0.352597 0
1.42049 -0.359644 0
1.38661 -0.36299 0
1.39077 -0.310372 0
1.35968 -0.317668 0
1.32813 -0.321778 0
1.43596 -0.408184 0
1.40189 -0.406979 0
1.36844 -0.402131 0
1.38661 -0.36299 0
1.35462 -0.363028 0
1.32299 -0.359899 0
1.32813 -0.321778 0
1.29805 -0.32297 0
1.26827 -0.321356 0
1.51065 -0.248147 0
1.48291 -0.268561 0
1.45309 -0.285822 0
1.43486 -0.215346 0
1.40933 -0.233975 0
1.38185 -0.249851 0
1.35938 -0.184272 0
1.33573 -0.201224 0
1.31017 -0.215821 0
1.45309 -0.285822 0
1.4226 -0.299787 0
1.39077 -0.310372 0
1.38185 -0.249851 0
1.35373 -0.262845 0
1.32432 -0.272908 0
1.31017 -0.215821 0
1.28394 -0.227924 0
1.25645 -0.237494 0
1.35938 -0.184272 0
1.33573 -0.201224 0
1.31017 -0.215821 0
1.28309 -0.156005 0
1.26092 -0.171103 0
1.23693 -0.184185 0
1.20467 -0.129093 0
1.18368 -0.142534 0
1.16089 -0.154274 0
1.31017 -0.215821 0
1.28394 -0.227924 0
1.25645 -0.237494 0
1.23693 -0.184185 0
1.21219 -0.195135 0
1.1862 -0.203925 0
1.16089 -0.154274 0
1.13735 -0.16421 0
1.11258 -0.172307 0
1.39077 -0.310372 0
1.35968 -0.317668 0
1.32813 -0.321778 0
1.32432 -0.272908 0
1.29544 -0.280101 0
1.26604 -0.2845 0
1.25645 -0.237494 0
1.22926 -0.24456 0
1.2015 -0.249183 0
1.32813 -0.321778 0
1.29805 -0.32297 0
1.26827 -0.321356 0
1.26604 -0.2845 0
1.2378 -0.28632 0
1.20973 -0.285638 0
1.2015 -0.249183 0
1.17461 -0.251523 0
1.1478 -0.251646 0
1.25645 -0.237494 0
1.22926 -0.24456 0
1.2015 -0.249183 0
1.1862 -0.203925 0
1.16034 -0.210579 0
1.13386 -0.215132 0
1.11258 -0.172307 0
1.08781 -0.17858 0
1.0624 -0.183054 0
1.2015 -0.249183 0
1.17461 -0.251523 0
1.1478 -0.251646 0
1.13386 -0.215132 0
1.10803 -0.217724 0
1.08218 -0.218385 0
1.0624 -0.183054 0
1.03747 -0.185831 0
1.01246 -0.186935 0
1.44748 -0.486446 0
1.41361 -0.472818 0
1.38178 -0.455738 0
1.40904 -0.442825 0
1.37712 -0.432332 0
1.34695 -0.419129 0
1.36844 -0.402131 0
1.33841 -0.394348 0
1.3098 -0.383865 0
1.38178 -0.455738 0
1.35428 -0.437268 0
1.32918 -0.416967 0
1.34695 -0.419129 0
1.32049 -0.404011 0
1.29622 -0.387033 0
1.3098 -0.383865 0
1.28416 -0.371307 0
1.26031 -0.35686 0
1.36844 -0.402131 0
1.33841 -0.394348 0
1.3098 -0.383865 0
1.32299 -0.359899 0
1.29409 -0.354139 0
1.2663 -0.345911 0
1.26827 -0.321356 0
1.24074 -0.31734 0
1.21421 -0.311099 0
1.3098 -0.383865 0
1.28416 -0.371307 0
1.26031 -0.35686 0
1.2663 -0.345911 0
1.24103 -0.335799 0
1.21736 -0.323911 0
1.21421 -0.311099 0
1.18985 -0.303063 0
1.16692 -0.293335 0
1.32918 -0.416967 0
1.30804 -0.395987 0
1.28973 -0.373869 0
1.29622 -0.387033 0
1.2755 -0.368844 0
1.25722 -0.349647 0
1.26031 -0.35686 0
1.23944 -0.341124 0
1.22068 -0.324253 0
1.28973 -0.373869 0
1.27422 -0.351945 0
1.26104 -0.330212 0
1.25722 -0.349647 0
1.24133 -0.329924 0
1.22777 -0.309633 0
1.22068 -0.324253 0
1.20404 -0.306744 0
1.18951 -0.288888 0
1.26031 -0.35686 0
1.23944 -0.341124 0
1.22068 -0.324253 0
1.21736 -0.323911 0
1.19642 -0.310766 0
1.17743 -0.296493 0
1.16692 -0.293335 0
1.14639 -0.282322 0
1.12761 -0.270155 0
1.22068 -0.324253 0
1.20404 -0.306744 0
1.18951 -0.288888 0
1.17743 -0.296493 0
1.16046 -0.281497 0
1.14547 -0.265839 0
1.12761 -0.270155 0
1.11058 -0.257127 0
1.09532 -0.243362 0
1.26827 -0.321356 0
1.24074 -0.31734 0
1.21421 -0.311099 0
1.20973 -0.285638 0
1.1835 -0.282798 0
1.15807 -0.277937 0
1.1478 -0.251646 0
1.12245 -0.249824 0
1.09776 -0.246178 0
1.21421 -0.311099 0
1.18985 -0.303063 0
1.16692 -0.293335 0
1.15807 -0.277937 0
1.13444 -0.271418 0
1.11202 -0.263309 0
1.09776 -0.246178 0
1.0746 -0.241001 0
1.05251 -0.234368 0
1.1478 -0.251646 0
1.12245 -0.249824 0
1.09776 -0.246178 0
1.08218 -0.218385 0
1.05753 -0.21735 0
1.03344 -0.214695 0
1.01246 -0.186935 0
0.988433 -0.186545 0
0.964849 -0.184731 0
1.09776 -0.246178 0
1.0746 -0.241001 0
1.05251 -0.234368 0
1.03344 -0.214695 0
1.01065 -0.210669 0
0.988818 -0.205326 0
0.964849 -0.184731 0
0.942379 -0.181688 0
0.920748 -0.177464 0
1.16692 -0.293335 0
1.14639 -0.282322 0
1.12761 -0.270155 0
1.11202 -0.263309 0
1.09165 -0.253979 0
1.07281 -0.243565 0
1.05251 -0.234368 0
1.03222 -0.226593 0
1.01333 -0.217793 0
1.12761 -0.270155 0
1.11058 -0.257127 0
1.09532 -0.243362 0
1.07281 -0.243565 0
1.05557 -0.23235 0
1.03998 -0.220381 0
1.01333 -0.217793 0
0.995959 -0.208187 0
0.980124 -0.197836 0
1.05251 -0.234368 0
1.03222 -0.226593 0
1.01333 -0.217793 0
0.988818 -0.205326 0
0.968562 -0.198925 0
0.949584 -0.191555 0
0.920748 -0.177464 0
0.900487 -0.172269 0
0.881391 -0.166192 0
1.01333 -0.217793 0
0.995959 -0.208187 0
0.980124 -0.197836 0
0.949584 -0.191555 0
0.931966 -0.183414 0
0.915766 -0.174567 0
0.881391 -0.166192 0
0.863552 -0.159398 0
0.847057 -0.151941 0
1.20467 -0.129093 0
1.18368 -0.142534 0
1.16089 -0.154274 0
1.12478 -0.104858 0
1.10482 -0.116592 0
1.08312 -0.126896 0
1.04217 -0.0815007 0
1.02321 -0.0916 0
1.00245 -0.100525 0
1.16089 -0.154274 0
1.13735 -0.16421 0
1.11258 -0.172307 0
1.08312 -0.126896 0
1.06062 -0.135671 0
1.03688 -0.142893 0
1.00245 -0.100525 0
0.980864 -0.108189 0
0.957987 -0.114564 0
1.04217 -0.0815007 0
1.02321 -0.0916 0
1.00245 -0.100525 0
0.953823 -0.0602476 0
0.936127 -0.0685966 0
0.916559 -0.0760149 0
0.853242 -0.0406052 0
0.83739 -0.0471422 0
0.819499 -0.052995 0
1.00245 -0.100525 0
0.980864 -0.108189 0
0.957987 -0.114564 0
0.916559 -0.0760149 0
0.896044 -0.0824248 0
0.874163 -0.0878044 0
0.819499 -0.052995 0
0.800528 -0.0580994 0
0.780063 -0.0624265 0
1.11258 -0.172307 0
1.08781 -0.17858 0
1.0624 -0.183054 0
1.03688 -0.142893 0
1.01301 -0.148566 0
0.988462 -0.15271 0
0.957987 -0.114564 0
0.934872 -0.119654 0
0.911018 -0.123468 0
1.0624 -0.183054 0
1.03747 -0.185831 0
1.01246 -0.186935 0
0.988462 -0.15271 0
0.964238 -0.155407 0
0.939862 -0.156674 0
0.911018 -0.123468 0
0.887356 -0.126071 0
0.863478 -0.127475 0
0.957987 -0.114564 0
0.934872 -0.119654 0
0.911018 -0.123468 0
0.874163 -0.0878044 0
0.851905 -0.0921508 0
0.828823 -0.0954673 0
0.780063 -0.0624265 0
0.759061 -0.0659731 0
0.737122 -0.0687324 0
0.911018 -0.123468 0
0.887356 -0.126071 0
0.863478 -0.127475 0
0.828823 -0.0954673 0
0.805793 -0.0978054 0
0.782458 -0.0991676 0
0.737122 -0.0687324 0
0.715078 -0.0707444 0
0.692627 -0.072003 0
0.853242 -0.0406052 0
0.83739 -0.0471422 0
0.819499 -0.052995 0
0.728808 -0.0241597 0
0.715877 -0.0287184 0
0.700776 -0.0328298 0
0.560728 -0.010568 0
0.551801 -0.0131123 0
0.540743 -0.0154278 0
0.819499 -0.052995 0
0.800528 -0.0580994 0
0.780063 -0.0624265 0
0.700776 -0.0328298 0
0.684396 -0.0364456 0
0.666373 -0.0395337 0
0.540743 -0.0154278 0
0.528339 -0.0174937 0
0.514282 -0.0192754 0
0.560728 -0.010568 0
0.551801 -0.0131123 0
0.540743 -0.0154278 0
0.325005 -0.00298661 0
0.320578 -0.00377585 0
0.314542 -0.00448723 0
0 0 0
0 0 0
0 0 0
0.540743 -0.0154278 0
0.528339 -0.0174937 0
0.514282 -0.0192754 0
0.314542 -0.00448723 0
0.307566 -0.00513268 0
0.299295 -0.00567493 0
0 0 0
0 0 0
0 0 0
0.780063 -0.0624265 0
0.759061 -0.0659731 0
0.737122 -0.0687324 0
0.666373 -0.0395337 0
0.647603 -0.0420923 0
0.627748 -0.0441056 0
0.514282 -0.0192754 0
0.499339 -0.0207821 0
0.48326 -0.0219861 0
0.737122 -0.0687324 0
0.715078 -0.0707444 0
0.692627 -0.072003 0