# vtk DataFile Version 3.0
#This file was generated by the deal.II library on 2025/1/2 at 0:29:14
ASCII
DATASET UNSTRUCTURED_GRID

POINTS 34560 double
1.1 1.1 0
1.03125 1.09531 0
0.9625 1.09063 0
1.09375 1.03125 0
1.02539 1.02686 0
0.957031 1.02246 0
1.0875 0.9625 0
1.01953 0.958398 0
0.951563 0.954297 0
0.9625 1.09063 0
0.89375 1.08594 0
0.825 1.08125 0
0.957031 1.02246 0
0.888672 1.01807 0
0.820312 1.01367 0
0.951563 0.954297 0
0.883594 0.950195 0
0.815625 0.946094 0
1.0875 0.9625 0
1.01953 0.958398 0
0.951563 0.954297 0
1.08125 0.89375 0
1.01367 0.889941 0
0.946094 0.886133 0
1.075 0.825 0
1.00781 0.821484 0
0.940625 0.817969 0
0.951563 0.954297 0
0.883594 0.950195 0
0.815625 0.946094 0
0.946094 0.886133 0
0.878516 0.882324 0
0.810938 0.878516 0
0.940625 0.817969 0
0.873438 0.814453 0
0.80625 0.810937 0
0.825 1.08125 0
0.75625 1.07656 0
0.6875 1.07187 0
0.820312 1.01367 0
0.751953 1.00928 0
0.683594 1.00488 0
0.815625 0.946094 0
0.747656 0.941992 0
0.679688 0.937891 0
0.6875 1.07187 0
0.61875 1.06719 0
0.55 1.0625 0
0.683594 1.00488 0
0.615234 1.00049 0
0.546875 0.996094 0
0.679688 0.937891 0
0.611719 0.933789 0
0.54375 0.929688 0
0.815625 0.946094 0
0.747656 0.941992 0
0.679688 0.937891 0
0.810938 0.878516 0
0.743359 0.874707 0
0.675781 0.870898 0
0.80625 0.810937 0
0.739063 0.807422 0
0.671875 0.803906 0
0.679688 0.937891 0
0.611719 0.933789 0
0.54375 0.929688 0
0.675781 0.870898 0
0.608203 0.86709 0
0.540625 0.863281 0
0.671875 0.803906 0
0.604688 0.800391 0
0.5375 0.796875 0
1.075 0.825 0
1.00781 0.821484 0
0.940625 0.817969 0
1.06875 0.75625 0
1.00195 0.753027 0
0.935156 0.749805 0
1.0625 0.6875 0
0.996094 0.68457 0
0.929688 0.681641 0
0.940625 0.817969 0
0.873438 0.814453 0
0.80625 0.810937 0
0.935156 0.749805 0
0.868359 0.746582 0
0.801563 0.743359 0
0.929688 0.681641 0
0.863281 0.678711 0
0.796875 0.675781 0
1.0625 0.6875 0
0.996094 0.68457 0
0.929688 0.681641 0
1.05625 0.61875 0
0.990234 0.616113 0
0.924219 0.613477 0
1.05 0.55 0
0.984375 0.547656 0
0.91875 0.545313 0
0.929688 0.681641 0
0.863281 0.678711 0
0.796875 0.675781 0
0.924219 0.613477 0
0.858203 0.61084 0
0.792188 0.608203 0
0.91875 0.545313 0
0.853125 0.542969 0
0.7875 0.540625 0
0.80625 0.810937 0
0.739063 0.807422 0
0.671875 0.803906 0
0.801563 0.743359 0
0.734766 0.740137 0
0.667969 0.736914 0
0.796875 0.675781 0
0.730469 0.672852 0
0.664062 0.669922 0
0.671875 0.803906 0
0.604688 0.800391 0
0.5375 0.796875 0
0.667969 0.736914 0
0.601172 0.733691 0
0.534375 0.730469 0
0.664062 0.669922 0
0.597656 0.666992 0
0.53125 0.664062 0
0.796875 0.675781 0
0.730469 0.672852 0
0.664062 0.669922 0
0.792188 0.608203 0
0.726172 0.605566 0
0.660156 0.60293 0
0.7875 0.540625 0
0.721875 0.538281 0
0.65625 0.535937 0
0.664062 0.669922 0
0.597656 0.666992 0
0.53125 0.664062 0
0.660156 0.60293 0
0.594141 0.600293 0
0.528125 0.597656 0
0.65625 0.535937 0
0.590625 0.533594 0
0.525 0.53125 0
0.55 1.0625 0
0.48125 1.05781 0
0.4125 1.05313 0
0.546875 0.996094 0
0.478516 0.991699 0
0.410156 0.987305 0
0.54375 0.929688 0
0.475781 0.925586 0
0.407813 0.921484 0
0.4125 1.05313 0
0.34375 1.04844 0
0.275 1.04375 0
0.410156 0.987305 0
0.341797 0.98291 0
0.273438 0.978516 0
0.407813 0.921484 0
0.339844 0.917383 0
0.271875 0.913281 0
0.54375 0.929688 0
0.475781 0.925586 0
0.407813 0.921484 0
0.540625 0.863281 0
0.473047 0.859473 0
0.405469 0.855664 0
0.5375 0.796875 0
0.470313 0.793359 0
0.403125 0.789844 0
0.407813 0.921484 0
0.339844 0.917383 0
0.271875 0.913281 0
0.405469 0.855664 0
0.337891 0.851855 0
0.270313 0.848047 0
0.403125 0.789844 0
0.335938 0.786328 0
0.26875 0.782813 0
0.275 1.04375 0
0.20625 1.03906 0
0.1375 1.03437 0
0.273438 0.978516 0
0.205078 0.974121 0
0.136719 0.969727 0
0.271875 0.913281 0
0.203906 0.90918 0
0.135938 0.905078 0
0.1375 1.03437 0
0.06875 1.02969 0
0 1.025 0
0.136719 0.969727 0
0.0683594 0.965332 0
0 0.960937 0
0.135938 0.905078 0
0.0679688 0.900977 0
0 0.896875 0
0.271875 0.913281 0
0.203906 0.90918 0
0.135938 0.905078 0
0.270313 0.848047 0
0.202734 0.844238 0
0.135156 0.84043 0
0.26875 0.782813 0
0.201563 0.779297 0
0.134375 0.775781 0
0.135938 0.905078 0
0.0679688 0.900977 0
0 0.896875 0
0.135156 0.84043 0
0.0675781 0.836621 0
0 0.832812 0
0.134375 0.775781 0
0.0671875 0.772266 0
0 0.76875 0
0.5375 0.796875 0
0.470313 0.793359 0
0.403125 0.789844 0
0.534375 0.730469 0
0.467578 0.727246 0
0.400781 0.724023 0
0.53125 0.664062 0
0.464844 0.661133 0
0.398438 0.658203 0
0.403125 0.789844 0
0.335938 0.786328 0
0.26875 0.782813 0
0.400781 0.724023 0
0.333984 0.720801 0
0.267188 0.717578 0
0.398438 0.658203 0
0.332031 0.655273 0
0.265625 0.652344 0
0.53125 0.664062 0
0.464844 0.661133 0
0.398438 0.658203 0
0.528125 0.597656 0
0.462109 0.59502 0
0.396094 0.592383 0
0.525 0.53125 0
0.459375 0.528906 0
0.39375 0.526563 0
0.398438 0.658203 0
0.332031 0.655273 0
0.265625 0.652344 0
0.396094 0.592383 0
0.330078 0.589746 0
0.264062 0.587109 0
0.39375 0.526563 0
0.328125 0.524219 0
0.2625 0.521875 0
0.26875 0.782813 0
0.201563 0.779297 0
0.134375 0.775781 0
0.267188 0.717578 0
0.200391 0.714355 0
0.133594 0.711133 0
0.265625 0.652344 0
0.199219 0.649414 0
0.132812 0.646484 0
0.134375 0.775781 0
0.0671875 0.772266 0
0 0.76875 0
0.133594 0.711133 0
0.0667969 0.70791 0
0 0.704687 0
0.132812 0.646484 0
0.0664062 0.643555 0
0 0.640625 0
0.265625 0.652344 0
0.199219 0.649414 0
0.132812 0.646484 0
0.264062 0.587109 0
0.198047 0.584473 0
0.132031 0.581836 0
0.2625 0.521875 0
0.196875 0.519531 0
0.13125 0.517187 0
0.132812 0.646484 0
0.0664062 0.643555 0
0 0.640625 0
0.132031 0.581836 0
0.0660156 0.579199 0
0 0.576562 0
0.13125 0.517187 0
0.065625 0.514844 0
0 0.5125 0
1.05 0.55 0
0.984375 0.547656 0
0.91875 0.545313 0
1.04375 0.48125 0
0.978516 0.479199 0
0.913281 0.477148 0
1.0375 0.4125 0
0.972656 0.410742 0
0.907813 0.408984 0
0.91875 0.545313 0
0.853125 0.542969 0
0.7875 0.540625 0
0.913281 0.477148 0
0.848047 0.475098 0
0.782813 0.473047 0
0.907813 0.408984 0
0.842969 0.407227 0
0.778125 0.405469 0
1.0375 0.4125 0
0.972656 0.410742 0
0.907813 0.408984 0
1.03125 0.34375 0
0.966797 0.342285 0
0.902344 0.34082 0
1.025 0.275 0
0.960937 0.273828 0
0.896875 0.272656 0
0.907813 0.408984 0
0.842969 0.407227 0
0.778125 0.405469 0
0.902344 0.34082 0
0.837891 0.339355 0
0.773438 0.337891 0
0.896875 0.272656 0
0.832812 0.271484 0
0.76875 0.270313 0
0.7875 0.540625 0
0.721875 0.538281 0
0.65625 0.535937 0
0.782813 0.473047 0
0.717578 0.470996 0
0.652344 0.468945 0
0.778125 0.405469 0
0.713281 0.403711 0
0.648438 0.401953 0
0.65625 0.535937 0
0.590625 0.533594 0
0.525 0.53125 0
0.652344 0.468945 0
0.587109 0.466895 0
0.521875 0.464844 0
0.648438 0.401953 0
0.583594 0.400195 0
0.51875 0.398438 0
0.778125 0.405469 0
0.713281 0.403711 0
0.648438 0.401953 0
0.773438 0.337891 0
0.708984 0.336426 0
0.644531 0.334961 0
0.76875 0.270313 0
0.704687 0.269141 0
0.640625 0.267969 0
0.648438 0.401953 0
0.583594 0.400195 0
0.51875 0.398438 0
0.644531 0.334961 0
0.580078 0.333496 0
0.515625 0.332031 0
0.640625 0.267969 0
0.576562 0.266797 0
0.5125 0.265625 0
1.025 0.275 0
0.960937 0.273828 0
0.896875 0.272656 0
1.01875 0.20625 0
0.955078 0.205371 0
0.891406 0.204492 0
1.0125 0.1375 0
0.949219 0.136914 0
0.885937 0.136328 0
0.896875 0.272656 0
0.832812 0.271484 0
0.76875 0.270313 0
0.891406 0.204492 0
0.827734 0.203613 0
0.764062 0.202734 0
0.885937 0.136328 0
0.822656 0.135742 0
0.759375 0.135156 0
1.0125 0.1375 0
0.949219 0.136914 0
0.885937 0.136328 0
1.00625 0.06875 0
0.943359 0.068457 0
0.880469 0.0681641 0
1 0 0
0.9375 0 0
0.875 0 0
0.885937 0.136328 0
0.822656 0.135742 0
0.759375 0.135156 0
0.880469 0.0681641 0
0.817578 0.0678711 0
0.754687 0.0675781 0
0.875 0 0
0.8125 0 0
0.75 0 0
0.76875 0.270313 0
0.704687 0.269141 0
0.640625 0.267969 0
0.764062 0.202734 0
0.700391 0.201855 0
0.636719 0.200977 0
0.759375 0.135156 0
0.696094 0.13457 0
0.632812 0.133984 0
0.640625 0.267969 0
0.576562 0.266797 0
0.5125 0.265625 0
0.636719 0.200977 0
0.573047 0.200098 0
0.509375 0.199219 0
0.632812 0.133984 0
0.569531 0.133398 0
0.50625 0.132812 0
0.759375 0.135156 0
0.696094 0.13457 0
0.632812 0.133984 0
0.754687 0.0675781 0
0.691797 0.0672852 0
0.628906 0.0669922 0
0.75 0 0
0.6875 0 0
0.625 0 0
0.632812 0.133984 0
0.569531 0.133398 0
0.50625 0.132812 0
0.628906 0.0669922 0
0.566016 0.0666992 0
0.503125 0.0664062 0
0.625 0 0
0.5625 0 0
0.5 0 0
0.525 0.53125 0
0.459375 0.528906 0
0.39375 0.526563 0
0.521875 0.464844 0
0.456641 0.462793 0
0.391406 0.460742 0
0.51875 0.398438 0
0.453906 0.39668 0
0.389063 0.394922 0
0.39375 0.526563 0
0.328125 0.524219 0
0.2625 0.521875 0
0.391406 0.460742 0
0.326172 0.458691 0
0.260938 0.456641 0
0.389063 0.394922 0
0.324219 0.393164 0
0.259375 0.391406 0
0.51875 0.398438 0
0.453906 0.39668 0
0.389063 0.394922 0
0.515625 0.332031 0
0.451172 0.330566 0
0.386719 0.329102 0
0.5125 0.265625 0
0.448437 0.264453 0
0.384375 0.263281 0
0.389063 0.394922 0
0.324219 0.393164 0
0.259375 0.391406 0
0.386719 0.329102 0
0.322266 0.327637 0
0.257812 0.326172 0
0.384375 0.263281 0
0.320312 0.262109 0
0.25625 0.260937 0
0.2625 0.521875 0
0.196875 0.519531 0
0.13125 0.517187 0
0.260938 0.456641 0
0.195703 0.45459 0
0.130469 0.452539 0
0.259375 0.391406 0
0.194531 0.389648 0
0.129688 0.387891 0
0.13125 0.517187 0
0.065625 0.514844 0
0 0.5125 0
0.130469 0.452539 0
0.0652344 0.450488 0
0 0.448437 0
0.129688 0.387891 0
0.0648438 0.386133 0
0 0.384375 0
0.259375 0.391406 0
0.194531 0.389648 0
0.129688 0.387891 0
0.257812 0.326172 0
0.193359 0.324707 0
0.128906 0.323242 0
0.25625 0.260937 0
0.192187 0.259766 0
0.128125 0.258594 0
0.129688 0.387891 0
0.0648438 0.386133 0
0 0.384375 0
0.128906 0.323242 0
0.0644531 0.321777 0
0 0.320312 0
0.128125 0.258594 0
0.0640625 0.257422 0
0 0.25625 0
0.5125 0.265625 0
0.448437 0.264453 0
0.384375 0.263281 0
0.509375 0.199219 0
0.445703 0.19834 0
0.382031 0.197461 0
0.50625 0.132812 0
0.442969 0.132227 0
0.379688 0.131641 0
0.384375 0.263281 0
0.320312 0.262109 0
0.25625 0.260937 0
0.382031 0.197461 0
0.318359 0.196582 0
0.254687 0.195703 0
[...]
POINT_DATA 34560
VECTORS v double
1.22368 -0.281407 0
1.21046 -0.250747 0
1.19927 -0.222867 0
1.19167 -0.26542 0
1.17646 -0.238051 0
1.16365 -0.212315 0
1.15475 -0.248778 0
1.13823 -0.223894 0
1.12378 -0.200284 0
1.19927 -0.222867 0
1.18954 -0.196598 0
1.18149 -0.17258 0
1.16365 -0.212315 0
1.15202 -0.188114 0
1.14247 -0.165668 0
1.12378 -0.200284 0
1.11076 -0.178011 0
1.09963 -0.157136 0
1.15475 -0.248778 0
1.13823 -0.223894 0
1.12378 -0.200284 0
1.11189 -0.229765 0
1.09411 -0.207521 0
1.07844 -0.186279 0
1.06293 -0.211008 0
1.04444 -0.191171 0
1.02792 -0.172068 0
1.12378 -0.200284 0
1.11076 -0.178011 0
1.09963 -0.157136 0
1.07844 -0.186279 0
1.06422 -0.166082 0
1.0519 -0.147043 0
1.02792 -0.172068 0
1.01291 -0.153793 0
0.999719 -0.136448 0
1.18149 -0.17258 0
1.17408 -0.150301 0
1.16797 -0.129925 0
1.14247 -0.165668 0
1.13342 -0.144736 0
1.12601 -0.12546 0
1.09963 -0.157136 0
1.08928 -0.137626 0
1.08052 -0.119513 0
1.16797 -0.129925 0
1.16208 -0.111185 0
1.15713 -0.0940678 0
1.12601 -0.12546 0
1.11878 -0.107614 0
1.11278 -0.0912465 0
1.08052 -0.119513 0
1.07219 -0.102703 0
1.06511 -0.0871956 0
1.09963 -0.157136 0
1.08928 -0.137626 0
1.08052 -0.119513 0
1.0519 -0.147043 0
1.04049 -0.129119 0
1.03067 -0.112391 0
0.999719 -0.136448 0
0.987536 -0.120042 0
0.976921 -0.104647 0
1.08052 -0.119513 0
1.07219 -0.102703 0
1.06511 -0.0871956 0
1.03067 -0.112391 0
1.02147 -0.0967806 0
1.01354 -0.082312 0
0.976921 -0.104647 0
0.967043 -0.090227 0
0.958452 -0.0768079 0
1.06293 -0.211008 0
1.04444 -0.191171 0
1.02792 -0.172068 0
1.00865 -0.191564 0
0.989678 -0.174015 0
0.972603 -0.156999 0
0.949663 -0.172324 0
0.93041 -0.156864 0
0.912938 -0.141782 0
1.02792 -0.172068 0
1.01291 -0.153793 0
0.999719 -0.136448 0
0.972603 -0.156999 0
0.957004 -0.140616 0
0.943165 -0.124985 0
0.912938 -0.141782 0
0.896926 -0.127193 0
0.882602 -0.113204 0
0.949663 -0.172324 0
0.93041 -0.156864 0
0.912938 -0.141782 0
0.885877 -0.152289 0
0.866441 -0.138875 0
0.848732 -0.12573 0
0.817548 -0.132731 0
0.798101 -0.121217 0
0.780299 -0.109877 0
0.912938 -0.141782 0
0.896926 -0.127193 0
0.882602 -0.113204 0
0.848732 -0.12573 0
0.832451 -0.112954 0
0.817814 -0.10065 0
0.780299 -0.109877 0
0.763898 -0.0988087 0
0.749088 -0.088107 0
0.999719 -0.136448 0
0.987536 -0.120042 0
0.976921 -0.104647 0
0.943165 -0.124985 0
0.930401 -0.110133 0
0.919169 -0.0961338 0
0.882602 -0.113204 0
0.86941 -0.0998628 0
0.857712 -0.0872375 0
0.976921 -0.104647 0
0.967043 -0.090227 0
0.958452 -0.0768079 0
0.919169 -0.0961338 0
0.908783 -0.0829766 0
0.899681 -0.0706909 0
0.857712 -0.0872375 0
0.846951 -0.07534 0
0.837466 -0.0641995 0
0.882602 -0.113204 0
0.86941 -0.0998628 0
0.857712 -0.0872375 0
0.817814 -0.10065 0
0.80434 -0.088868 0
0.792338 -0.0776785 0
0.749088 -0.088107 0
0.735466 -0.0778279 0
0.723288 -0.0680356 0
0.857712 -0.0872375 0
0.846951 -0.07534 0
0.837466 -0.0641995 0
0.792338 -0.0776785 0
0.781337 -0.0671033 0
0.771611 -0.0571777 0
0.723288 -0.0680356 0
0.712166 -0.0587642 0
0.702313 -0.0500466 0
1.15713 -0.0940678 0
1.15221 -0.0783971 0
1.14793 -0.0640997 0
1.11278 -0.0912465 0
1.10684 -0.0761806 0
1.10176 -0.0623912 0
1.06511 -0.0871956 0
1.0583 -0.072884 0
1.05243 -0.059736 0
1.14793 -0.0640997 0
1.14361 -0.0510296 0
1.13971 -0.0390897 0
1.10176 -0.0623912 0
1.09673 -0.0497392 0
1.09229 -0.038151 0
1.05243 -0.059736 0
1.04678 -0.0476462 0
1.04183 -0.0365462 0
1.06511 -0.0871956 0
1.0583 -0.072884 0
1.05243 -0.059736 0
1.01354 -0.082312 0
1.00605 -0.0689043 0
0.999559 -0.0565438 0
0.958452 -0.0768079 0
0.950435 -0.0643418 0
0.943442 -0.0528159 0
1.05243 -0.059736 0
1.04678 -0.0476462 0
1.04183 -0.0365462 0
0.999559 -0.0565438 0
0.993447 -0.0451478 0
0.988094 -0.0346576 0
0.943442 -0.0528159 0
0.936966 -0.0421727 0
0.9313 -0.0323621 0
1.13971 -0.0390897 0
1.13579 -0.0281373 0
1.13212 -0.0180621 0
1.09229 -0.038151 0
1.08793 -0.0275039 0
1.08398 -0.0176884 0
1.04183 -0.0365462 0
1.0371 -0.0263318 0
1.03288 -0.0169122 0
1.13212 -0.0180621 0
1.12848 -0.00870973 0
1.125 0 0
1.08398 -0.0176884 0
1.08018 -0.00856728 0
1.07666 0 0
1.03288 -0.0169122 0
1.02894 -0.00816377 0
1.02539 0 0
1.04183 -0.0365462 0
1.0371 -0.0263318 0
1.03288 -0.0169122 0
0.988094 -0.0346576 0
0.983107 -0.024989 0
0.978706 -0.0160669 0
0.9313 -0.0323621 0
0.926116 -0.0233192 0
0.921575 -0.0149752 0
1.03288 -0.0169122 0
1.02894 -0.00816377 0
1.02539 0 0
0.978706 -0.0160669 0
0.974711 -0.00777613 0
0.971191 0 0
0.921575 -0.0149752 0
0.917548 -0.00723005 0
0.914062 0 0
0.958452 -0.0768079 0
0.950435 -0.0643418 0
0.943442 -0.0528159 0
0.899681 -0.0706909 0
0.891269 -0.0592494 0
0.883902 -0.0486462 0
0.837466 -0.0641995 0
0.828769 -0.0538086 0
0.821132 -0.0441632 0
0.943442 -0.0528159 0
0.936966 -0.0421727 0
0.9313 -0.0323621 0
0.883902 -0.0486462 0
0.877169 -0.0388418 0
0.871287 -0.0297978 0
0.821132 -0.0441632 0
0.814228 -0.0352418 0
0.808207 -0.0270122 0
0.837466 -0.0641995 0
0.828769 -0.0538086 0
0.821132 -0.0441632 0
0.771611 -0.0571777 0
0.762749 -0.0479049 0
0.754961 -0.0392872 0
0.702313 -0.0500466 0
0.69339 -0.0418982 0
0.685551 -0.0343217 0
0.821132 -0.0441632 0
0.814228 -0.0352418 0
0.808207 -0.0270122 0
0.754961 -0.0392872 0
0.747987 -0.0313135 0
0.74192 -0.0239631 0
0.685551 -0.0343217 0
0.678589 -0.0273184 0
0.672555 -0.0208724 0
0.9313 -0.0323621 0
0.926116 -0.0233192 0
0.921575 -0.0149752 0
0.871287 -0.0297978 0
0.865986 -0.0214607 0
0.86138 -0.013773 0
0.808207 -0.0270122 0
0.802851 -0.0194348 0
0.798231 -0.0124588 0
0.921575 -0.0149752 0
0.917548 -0.00723005 0
0.914062 0 0
0.86138 -0.013773 0
0.857391 -0.00664682 0
0.854004 0 0
0.798231 -0.0124588 0
0.794301 -0.00600754 0
0.791016 0 0
0.808207 -0.0270122 0
0.802851 -0.0194348 0
0.798231 -0.0124588 0
0.74192 -0.0239631 0
0.736588 -0.0172049 0
0.732024 -0.0109992 0
0.672555 -0.0208724 0
0.66731 -0.0149628 0
0.662855 -0.0095552 0
0.798231 -0.0124588 0
0.794301 -0.00600754 0
0.791016 0 0
0.732024 -0.0109992 0
0.728217 -0.00528106 0
0.725098 0 0
0.662855 -0.0095552 0
0.659199 -0.00459449 0
0.65625 0 0
0.817548 -0.132731 0
0.798101 -0.121217 0
0.780299 -0.109877 0
0.745008 -0.112683 0
0.725582 -0.102994 0
0.707757 -0.0934216 0
0.66822 -0.0930456 0
0.648911 -0.0850936 0
0.631146 -0.0772144 0
0.780299 -0.109877 0
0.763898 -0.0988087 0
0.749088 -0.088107 0
0.707757 -0.0934216 0
0.6913 -0.0840477 0
0.676404 -0.0749599 0
0.631146 -0.0772144 0
0.614729 -0.0694781 0
0.599843 -0.061962 0
0.66822 -0.0930456 0
0.648911 -0.0850936 0
0.631146 -0.0772144 0
0.5869 -0.0729476 0
0.567777 -0.0666836 0
0.550175 -0.0604743 0
0.499224 -0.0534511 0
0.480647 -0.0488185 0
0.463546 -0.0442316 0
0.631146 -0.0772144 0
0.614729 -0.0694781 0
0.599843 -0.061962 0
0.550175 -0.0604743 0
0.533899 -0.0543722 0
0.519139 -0.0484425 0
0.463546 -0.0442316 0
0.447748 -0.0397238 0
0.433435 -0.0353502 0
0.749088 -0.088107 0
0.735466 -0.0778279 0
0.723288 -0.0680356 0
0.676404 -0.0749599 0
0.662717 -0.0662102 0
0.650464 -0.0578563 0
0.599843 -0.061962 0
0.586191 -0.054712 0
0.573964 -0.0477792 0
0.723288 -0.0680356 0
0.712166 -0.0587642 0
0.702313 -0.0500466 0
0.650464 -0.0578563 0
0.639316 -0.049934 0
0.629441 -0.0424765 0
0.573964 -0.0477792 0
0.562887 -0.0411992 0
0.553092 -0.0350017 0
0.599843 -0.061962 0
0.586191 -0.054712 0
0.573964 -0.0477792 0
0.519139 -0.0484425 0
0.505634 -0.0427213 0
0.493556 -0.0372501 0
0.433435 -0.0353502 0
0.420379 -0.0311337 0
0.408732 -0.027108 0
0.573964 -0.0477792 0
0.562887 -0.0411992 0
0.553092 -0.0350017 0
0.493556 -0.0372501 0
0.482667 -0.0320586 0
0.473074 -0.027171 0
0.408732 -0.027108 0
0.398289 -0.0232931 0
0.389132 -0.0197082 0
0.499224 -0.0534511 0
0.480647 -0.0488185 0
0.463546 -0.0442316 0
0.401886 -0.0343431 0
0.384572 -0.0312667 0
0.368697 -0.0282369 0
0.288912 -0.017457 0
0.274534 -0.0158557 0
0.261433 -0.0142916 0
0.463546 -0.0442316 0
0.447748 -0.0397238 0
0.433435 -0.0353502 0
0.368697 -0.0282369 0
0.354068 -0.0252712 0
0.340871 -0.0224096 0
0.261433 -0.0142916 0
0.249424 -0.0127581 0
0.238664 -0.0112895 0
0.288912 -0.017457 0
0.274534 -0.0158557 0
0.261433 -0.0142916 0
0.154338 -0.00492926 0
0.145611 -0.00444091 0
0.137788 -0.00397769 0
0 0 0
0 0 0
0 0 0
0.261433 -0.0142916 0
0.249424 -0.0127581 0
0.238664 -0.0112895 0
0.137788 -0.00397769 0
0.130634 -0.00351704 0
0.124325 -0.00308777 0
0 0 0
0 0 0
0 0 0
0.433435 -0.0353502 0
0.420379 -0.0311337 0
0.408732 -0.027108 0
0.340871 -0.0224096 0
0.328885 -0.0196635 0
0.318247 -0.0170553 0
0.238664 -0.0112895 0
0.228953 -0.00988382 0
0.220395 -0.00855845 0
0.408732 -0.027108 0
0.398289 -0.0232931 0
0.389132 -0.0197082 0
0.318247 -0.0170553 0
0.308765 -0.0145959 0
0.300507 -0.0122968 0
0.220395 -0.00855845 0
0.212821 -0.007313 0
0.206274 -0.00615682 0
0.238664 -0.0112895 0
0.228953 -0.00988382 0
0.220395 -0.00855845 0
0.124325 -0.00308777 0
0.118653 -0.00267666 0
0.113728 -0.00229861 0
0 0 0
0 0 0
0 0 0
0.220395 -0.00855845 0
0.212821 -0.007313 0
0.206274 -0.00615682 0
0.113728 -0.00229861 0
0.109391 -0.00194397 0
0.105687 -0.00162202 0
0 0 0
0 0 0
0 0 0
0.702313 -0.0500466 0
0.69339 -0.0418982 0
0.685551 -0.0343217 0
0.629441 -0.0424765 0
0.620554 -0.0355033 0
0.612765 -0.0290201 0
0.553092 -0.0350017 0
0.544339 -0.0292093 0
0.536699 -0.0238275 0
0.685551 -0.0343217 0
0.678589 -0.0273184 0
0.672555 -0.0208724 0
0.612765 -0.0290201 0
0.605906 -0.0230332 0
0.599994 -0.0175357 0
0.536699 -0.0238275 0
0.53003 -0.0188684 0
0.524324 -0.014328 0
0.553092 -0.0350017 0
0.544339 -0.0292093 0
0.536699 -0.0238275 0
0.473074 -0.027171 0
0.464569 -0.0226073 0
0.457197 -0.0183717 0
0.389132 -0.0197082 0
0.381083 -0.0163668 0
0.374164 -0.0132702 0
0.536699 -0.0238275 0
0.53003 -0.0188684 0
0.524324 -0.014328 0
0.457197 -0.0183717 0
0.450828 -0.0144758 0
0.445434 -0.0109204 0
0.374164 -0.0132702 0
0.368256 -0.0104273 0
0.363315 -0.00784081 0
0.672555 -0.0208724 0
0.66731 -0.0149628 0
0.662855 -0.0095552 0
0.599994 -0.0175357 0
0.59491 -0.0125129 0
0.590635 -0.00794133 0
0.524324 -0.014328 0
0.519473 -0.0101999 0
0.515439 -0.00646519 0
0.662855 -0.0095552 0
0.659199 -0.00459449 0
0.65625 0 0
0.590635 -0.00794133 0
0.587189 -0.00377639 0
0.584473 0 0
0.515439 -0.00646519 0
0.512239 -0.00309196 0
0.509766 0 0
0.524324 -0.014328 0
0.519473 -0.0101999 0
0.515439 -0.00646519 0
0.445434 -0.0109204 0
0.440907 -0.00770258 0
0.437192 -0.00481805 0
0.363315 -0.00784081 0
0.359231 -0.00551164 0
0.355931 -0.00343587 0
0.515439 -0.00646519 0
0.512239 -0.00309196 0
0.509766 0 0
0.437192 -0.00481805 0
0.434302 -0.0022457 0
0.432129 0 0
0.355931 -0.00343587 0
0.353412 -0.0016192 0
0.351562 0 0
0.389132 -0.0197082 0
0.381083 -0.0163668 0
0.374164 -0.0132702 0
0.300507 -0.0122968 0
0.293313 -0.0101641 0
0.287187 -0.00819413 0
0.206274 -0.00615682 0
0.200621 -0.00508863 0
0.195852 -0.00410559 0
0.374164 -0.0132702 0
0.368256 -0.0104273 0
0.363315 -0.00784081 0
0.287187 -0.00819413 0
0.282021 -0.00638944 0
0.277763 -0.00475264 0
0.195852 -0.00410559 0
0.191874 -0.00320513 0
0.188642 -0.00239114 0
0.206274 -0.00615682 0
0.200621 -0.00508863 0
0.195852 -0.00410559 0
0.105687 -0.00162202 0
0.10251 -0.00132656 0
0.0998565 -0.00105842 0
0 0 0
0 0 0
0 0 0
0.195852 -0.00410559 0
0.191874 -0.00320513 0
0.188642 -0.00239114 0
0.0998565 -0.00105842 0
0.0976624 -0.000811501 0
0.0958922 -0.000592349 0
0 0 0
0 0 0
0 0 0
0.363315 -0.00784081 0
0.359231 -0.00551164 0
0.355931 -0.00343587 0
0.277763 -0.00475264 0
0.274309 -0.00328095 0
0.271578 -0.001977 0
0.188642 -0.00239114 0
0.186074 -0.00165896 0
0.1841 -0.00100192 0
0.355931 -0.00343587 0
0.353412 -0.0016192 0
0.351562 0 0
0.271578 -0.001977 0
0.269532 -0.000851797 0
0.268066 0 0
0.1841 -0.00100192 0
0.182656 -0.00044788 0
0.181641 0 0
0.188642 -0.00239114 0
0.186074 -0.00165896 0
0.1841 -0.00100192 0
0.0958922 -0.000592349 0
0.0945135 -0.00039713 0
0.0934914 -0.000218542 0
0 0 0
0 0 0
0 0 0
0.1841 -0.00100192 0
0.182656 -0.00044788 0
0.181641 0 0
0.0934914 -0.000218542 0
0.092766 -5.11829e-05 0
0.0922852 0 0
0 0 0
0 0 0
0 0 0
1.70169 -0.477175 0
1.65963 -0.494145 0
1.61594 -0.505659 0
1.64359 -0.425435 0
1.60481 -0.441436 0
1.56458 -0.452656 0
1.57972 -0.378706 0
1.54485 -0.393864 0
1.5086 -0.40493 0
1.61594 -0.505659 0
1.57248 -0.511311 0
1.52849 -0.511501 0
1.56458 -0.452656 0
1.52461 -0.459104 0
1.48412 -0.460746 0
1.5086 -0.40493 0
1.47255 -0.411951 0
1.436 -0.414767 0
1.57972 -0.378706 0
1.54485 -0.393864 0
1.5086 -0.40493 0
1.51779 -0.338464 0
1.48598 -0.351665 0
1.45296 -0.36147 0
1.45259 -0.299077 0
1.42254 -0.311144 0
1.39142 -0.320281 0
1.5086 -0.40493 0
1.47255 -0.411951 0
1.436 -0.414767 0
1.45296 -0.36147 0
1.41989 -0.367846 0
1.3863 -0.370707 0
1.39142 -0.320281 0
1.36029 -0.326498 0
1.32873 -0.329697 0
1.52849 -0.511501 0
1.48746 -0.50652 0
1.44714 -0.49649 0
1.48412 -0.460746 0
1.44617 -0.457865 0
1.40878 -0.450895 0
1.436 -0.414767 0
1.40141 -0.41373 0
1.36728 -0.408939 0
1.44714 -0.49649 0
1.41102 -0.482912 0
1.37651 -0.465675 0
1.40878 -0.450895 0
1.37492 -0.440428 0
1.34247 -0.426756 0
1.36728 -0.408939 0
1.33589 -0.400923 0
1.30569 -0.38989 0
1.436 -0.414767 0
1.40141 -0.41373 0
1.36728 -0.408939 0
1.3863 -0.370707 0
1.35409 -0.370274 0
1.32213 -0.366647 0
1.32873 -0.329697 0
1.29829 -0.330066 0
1.26813 -0.327681 0
1.36728 -0.408939 0
1.33589 -0.400923 0
1.30569 -0.38989 0
1.32213 -0.366647 0
1.2923 -0.360277 0
1.26343 -0.351287 0
1.26813 -0.327681 0
1.23975 -0.322867 0
1.21226 -0.315725 0
1.45259 -0.299077 0
1.42254 -0.311144 0
1.39142 -0.320281 0
1.38354 -0.263451 0
1.35526 -0.274622 0
1.326 -0.283197 0
1.31382 -0.229403 0
1.28706 -0.239721 0
1.25933 -0.247782 0
1.39142 -0.320281 0
1.36029 -0.326498 0
1.32873 -0.329697 0
1.326 -0.283197 0
1.29677 -0.289187 0
1.26712 -0.292535 0
1.25933 -0.247782 0
1.23159 -0.253586 0
1.20342 -0.25708 0
1.31382 -0.229403 0
1.28706 -0.239721 0
1.25933 -0.247782 0
1.24283 -0.197432 0
1.2172 -0.20672 0
1.19064 -0.214053 0
1.1693 -0.166695 0
1.14452 -0.175103 0
1.11881 -0.181838 0
1.25933 -0.247782 0
1.23159 -0.253586 0
1.20342 -0.25708 0
1.19064 -0.214053 0
1.16399 -0.219442 0
1.13692 -0.22284 0
1.11881 -0.181838 0
1.09301 -0.186909 0
1.06677 -0.190271 0
1.32873 -0.329697 0
1.29829 -0.330066 0
1.26813 -0.327681 0
1.26712 -0.292535 0
1.23843 -0.293394 0
1.20996 -0.291816 0
1.20342 -0.25708 0
1.17602 -0.258387 0
1.14877 -0.257546 0
1.26813 -0.327681 0
1.23975 -0.322867 0
1.21226 -0.315725 0
1.20996 -0.291816 0
1.18298 -0.288075 0
1.15678 -0.282247 0
1.14877 -0.257546 0
1.12275 -0.254781 0
1.09742 -0.250155 0
1.20342 -0.25708 0
1.17602 -0.258387 0
1.14877 -0.257546 0
1.13692 -0.22284 0
1.11044 -0.224363 0
1.08408 -0.224025 0
1.06677 -0.190271 0
1.04103 -0.192018 0
1.01537 -0.192157 0
1.14877 -0.257546 0
1.12275 -0.254781 0
1.09742 -0.250155 0
1.08408 -0.224025 0
1.05875 -0.222024 0
1.03403 -0.218389 0
1.01537 -0.192157 0
0.990601 -0.190846 0
0.966379 -0.188107 0
1.37651 -0.465675 0
1.34678 -0.446306 0
1.31945 -0.424293 0
1.34247 -0.426756 0
1.31419 -0.410596 0
1.28802 -0.392388 0
1.30569 -0.38989 0
1.27879 -0.376548 0
1.25367 -0.361129 0
1.31945 -0.424293 0
1.29617 -0.401456 0
1.27552 -0.37746 0
1.28802 -0.392388 0
1.26539 -0.372872 0
1.24517 -0.352103 0
1.25367 -0.361129 0
1.23148 -0.34423 0
1.21134 -0.326035 0
1.30569 -0.38989 0
1.27879 -0.376548 0
1.25367 -0.361129 0
1.26343 -0.351287 0
1.23726 -0.34023 0
1.21262 -0.327252 0
1.21226 -0.315725 0
1.18709 -0.306675 0
1.16334 -0.295879 0
1.25367 -0.361129 0
1.23148 -0.34423 0
1.21134 -0.326035 0
1.21262 -0.327252 0
1.19054 -0.312918 0
1.17034 -0.297365 0
1.16334 -0.295879 0
1.14183 -0.283769 0
1.12204 -0.270463 0
1.27552 -0.37746 0
1.25853 -0.353325 0
1.24442 -0.328742 0
1.24517 -0.352103 0
1.2282 -0.330698 0
1.21375 -0.308907 0
1.21134 -0.326035 0
1.19395 -0.30713 0
1.17878 -0.287696 0
1.24442 -0.328742 0
1.23287 -0.304752 0
1.22368 -0.281407 0
1.21375 -0.308907 0
1.20153 -0.287154 0
1.19167 -0.26542 0
1.17878 -0.287696 0
1.16569 -0.268163 0
1.15475 -0.248778 0
1.21134 -0.326035 0
1.19395 -0.30713 0
1.17878 -0.287696 0
1.17034 -0.297365 0
1.15267 -0.281078 0
1.13709 -0.264181 0
1.12204 -0.270463 0
1.10451 -0.256347 0
1.08888 -0.241562 0
1.17878 -0.287696 0
1.16569 -0.268163 0
1.15475 -0.248778 0
1.13709 -0.264181 0
1.12348 -0.24704 0
1.11189 -0.229765 0
1.08888 -0.241562 0
1.07498 -0.2264 0
1.06293 -0.211008 0
1.21226 -0.315725 0
1.18709 -0.306675 0
1.16334 -0.295879 0
1.15678 -0.282247 0
1.13252 -0.274698 0
1.10952 -0.265553 0
1.09742 -0.250155 0
1.07373 -0.243969 0
1.05117 -0.236331 0
1.16334 -0.295879 0
1.14183 -0.283769 0
1.12204 -0.270463 0
1.10952 -0.265553 0
1.08843 -0.255182 0
1.06887 -0.243676 0
1.05117 -0.236331 0
1.03029 -0.227549 0
1.01083 -0.217714 0
1.09742 -0.250155 0
1.07373 -0.243969 0
1.05117 -0.236331 0
1.03403 -0.218389 0
1.01074 -0.213382 0
0.988481 -0.207074 0
0.966379 -0.188107 0
0.94339 -0.184149 0
0.921355 -0.179035 0
1.05117 -0.236331 0
1.03029 -0.227549 0
1.01083 -0.217714 0
0.988481 -0.207074 0
0.967722 -0.199728 0
0.948287 -0.191415 0
0.921355 -0.179035 0
0.900649 -0.172979 0
0.881177 -0.166042 0
1.12204 -0.270463 0
1.10451 -0.256347 0
1.08888 -0.241562 0
1.06887 -0.243676 0
1.05129 -0.231389 0
1.03543 -0.21846 0
1.01083 -0.217714 0
0.993156 -0.207129 0
0.977094 -0.195912 0
1.08888 -0.241562 0
1.07498 -0.2264 0
1.06293 -0.211008 0
1.03543 -0.21846 0
1.02118 -0.20516 0
1.00865 -0.191564 0
0.977094 -0.195912 0
0.96256 -0.184282 0
0.949663 -0.172324 0
1.01083 -0.217714 0
0.993156 -0.207129 0
0.977094 -0.195912 0
0.948287 -0.191415 0
0.93046 -0.182387 0
0.914142 -0.172744 0
0.881177 -0.166042 0
0.863156 -0.158434 0
0.846562 -0.15025 0
0.977094 -0.195912 0
0.96256 -0.184282 0
0.949663 -0.172324 0
0.914142 -0.172744 0
0.899239 -0.162682 0
0.885877 -0.152289 0
0.846562 -0.15025 0
0.831309 -0.141657 0
0.817548 -0.132731 0
1.1693 -0.166695 0
1.14452 -0.175103 0
1.11881 -0.181838 0
1.09402 -0.13806 0
1.06995 -0.145525 0
1.04497 -0.15156 0
1.01591 -0.110168 0
0.992503 -0.116739 0
0.968109 -0.122111 0
1.11881 -0.181838 0
1.09301 -0.186909 0
1.06677 -0.190271 0
1.04497 -0.15156 0
1.01984 -0.156169 0
0.994263 -0.159315 0
0.968109 -0.122111 0
0.943528 -0.126289 0
0.918444 -0.129239 0
1.01591 -0.110168 0
0.992503 -0.116739 0
0.968109 -0.122111 0
0.93212 -0.0837885 0
0.909592 -0.0893459 0
0.886 -0.0939315 0
0.835538 -0.0588066 0
0.814516 -0.0632753 0
0.792258 -0.0670058 0
0.968109 -0.122111 0
0.943528 -0.126289 0
0.918444 -0.129239 0
0.886 -0.0939315 0
0.862107 -0.0975456 0
0.837629 -0.100162 0
0.792258 -0.0670058 0
0.769558 -0.0699975 0
0.746146 -0.0722219 0
1.06677 -0.190271 0
1.04103 -0.192018 0
1.01537 -0.192157 0
0.994263 -0.159315 0
0.969069 -0.161078 0
0.943909 -0.161463 0
0.918444 -0.129239 0
0.893641 -0.131027 0
0.868819 -0.131656 0
1.01537 -0.192157 0
0.990601 -0.190846 0
0.966379 -0.188107 0
0.943909 -0.161463 0
0.919495 -0.160603 0
0.895563 -0.158517 0
0.868819 -0.131656 0
0.844623 -0.131234 0
0.820851 -0.129775 0
0.918444 -0.129239 0
0.893641 -0.131027 0
0.868819 -0.131656 0
0.837629 -0.100162 0
0.813306 -0.101834 0
0.788884 -0.102559 0
0.746146 -0.0722219 0
0.722735 -0.0737211 0
0.699119 -0.0744862 0
0.868819 -0.131656 0
0.844623 -0.131234 0
0.820851 -0.129775 0
0.788884 -0.102559 0
0.764961 -0.102427 0
0.741384 -0.101444 0
0.699119 -0.0744862 0
0.675857 -0.0745887 0
0.652848 -0.0740291 0
0.835538 -0.0588066 0
0.814516 -0.0632753 0
0.792258 -0.0670058 0
0.714173 -0.0366111 0
0.695854 -0.0398002 0
0.676134 -0.0424854 0
0.547796 -0.0173461 0
0.533784 -0.0191731 0
0.51832 -0.0207278 0
0.792258 -0.0670058 0
0.769558 -0.0699975 0
0.746146 -0.0722219 0
0.676134 -0.0424854 0
0.655754 -0.0446651 0
0.634499 -0.046311 0
0.51832 -0.0207278 0
0.502057 -0.0220192 0
0.484846 -0.0230147 0
0.547796 -0.0173461 0
0.533784 -0.0191731 0
0.51832 -0.0207278 0
0.314411 -0.00503264 0
0.306381 -0.00560308 0
0.297246 -0.00607634 0
0 0 0
0 0 0
0 0 0
0.51832 -0.0207278 0
0.502057 -0.0220192 0
0.484846 -0.0230147 0
0.297246 -0.00607634 0
0.287499 -0.00647985 0
0.277007 -0.0067738 0
0 0 0
0 0 0
0 0 0
0.746146 -0.0722219 0
0.722735 -0.0737211 0
0.699119 -0.0744862 0
0.634499 -0.046311 0
0.613037 -0.0474549 0
0.591226 -0.0480832 0
0.484846 -0.0230147 0
0.467253 -0.0237436 0