# vtk DataFile Version 3.0
#This file was generated by the deal.II library on 2025/1/8 at 7:41:50
ASCII
DATASET UNSTRUCTURED_GRID

POINTS 34560 double
1.1 1.1 0
1.03125 1.09531 0
0.9625 1.09063 0
1.09375 1.03125 0
1.02539 1.02686 0
0.957031 1.02246 0
1.0875 0.9625 0
1.01953 0.958398 0
0.951563 0.954297 0
0.9625 1.09063 0
0.89375 1.08594 0
0.825 1.08125 0
0.957031 1.02246 0
0.888672 1.01807 0
0.820312 1.01367 0
0.951563 0.954297 0
0.883594 0.950195 0
0.815625 0.946094 0
1.0875 0.9625 0
1.01953 0.958398 0
0.951563 0.954297 0
1.08125 0.89375 0
1.01367 0.889941 0
0.946094 0.886133 0
1.075 0.825 0
1.00781 0.821484 0
0.940625 0.817969 0
0.951563 0.954297 0
0.883594 0.950195 0
0.815625 0.946094 0
0.946094 0.886133 0
0.878516 0.882324 0
0.810938 0.878516 0
0.940625 0.817969 0
0.873438 0.814453 0
0.80625 0.810937 0
0.825 1.08125 0
0.75625 1.07656 0
0.6875 1.07187 0
0.820312 1.01367 0
0.751953 1.00928 0
0.683594 1.00488 0
0.815625 0.946094 0
0.747656 0.941992 0
0.679688 0.937891 0
0.6875 1.07187 0
0.61875 1.06719 0
0.55 1.0625 0
0.683594 1.00488 0
0.615234 1.00049 0
0.546875 0.996094 0
0.679688 0.937891 0
0.611719 0.933789 0
0.54375 0.929688 0
0.815625 0.946094 0
0.747656 0.941992 0
0.679688 0.937891 0
0.810938 0.878516 0
0.743359 0.874707 0
0.675781 0.870898 0
0.80625 0.810937 0
0.739063 0.807422 0
0.671875 0.803906 0
0.679688 0.937891 0
0.611719 0.933789 0
0.54375 0.929688 0
0.675781 0.870898 0
0.608203 0.86709 0
0.540625 0.863281 0
0.671875 0.803906 0
0.604688 0.800391 0
0.5375 0.796875 0
1.075 0.825 0
1.00781 0.821484 0
0.940625 0.817969 0
1.06875 0.75625 0
1.00195 0.753027 0
0.935156 0.749805 0
1.0625 0.6875 0
0.996094 0.68457 0
0.929688 0.681641 0
0.940625 0.817969 0
0.873438 0.814453 0
0.80625 0.810937 0
0.935156 0.749805 0
0.868359 0.746582 0
0.801563 0.743359 0
0.929688 0.681641 0
0.863281 0.678711 0
0.796875 0.675781 0
1.0625 0.6875 0
0.996094 0.68457 0
0.929688 0.681641 0
1.05625 0.61875 0
0.990234 0.616113 0
0.924219 0.613477 0
1.05 0.55 0
0.984375 0.547656 0
0.91875 0.545313 0
0.929688 0.681641 0
0.863281 0.678711 0
0.796875 0.675781 0
0.924219 0.613477 0
0.858203 0.61084 0
0.792188 0.608203 0
0.91875 0.545313 0
0.853125 0.542969 0
0.7875 0.540625 0
0.80625 0.810937 0
0.739063 0.807422 0
0.671875 0.803906 0
0.801563 0.743359 0
0.734766 0.740137 0
0.667969 0.736914 0
0.796875 0.675781 0
0.730469 0.672852 0
0.664062 0.669922 0
0.671875 0.803906 0
0.604688 0.800391 0
0.5375 0.796875 0
0.667969 0.736914 0
0.601172 0.733691 0
0.534375 0.730469 0
0.664062 0.669922 0
0.597656 0.666992 0
0.53125 0.664062 0
0.796875 0.675781 0
0.730469 0.672852 0
0.664062 0.669922 0
0.792188 0.608203 0
0.726172 0.605566 0
0.660156 0.60293 0
0.7875 0.540625 0
0.721875 0.538281 0
0.65625 0.535937 0
0.664062 0.669922 0
0.597656 0.666992 0
0.53125 0.664062 0
0.660156 0.60293 0
0.594141 0.600293 0
0.528125 0.597656 0
0.65625 0.535937 0
0.590625 0.533594 0
0.525 0.53125 0
0.55 1.0625 0
0.48125 1.05781 0
0.4125 1.05313 0
0.546875 0.996094 0
0.478516 0.991699 0
0.410156 0.987305 0
0.54375 0.929688 0
0.475781 0.925586 0
0.407813 0.921484 0
0.4125 1.05313 0
0.34375 1.04844 0
0.275 1.04375 0
0.410156 0.987305 0
0.341797 0.98291 0
0.273438 0.978516 0
0.407813 0.921484 0
0.339844 0.917383 0
0.271875 0.913281 0
0.54375 0.929688 0
0.475781 0.925586 0
0.407813 0.921484 0
0.540625 0.863281 0
0.473047 0.859473 0
0.405469 0.855664 0
0.5375 0.796875 0
0.470313 0.793359 0
0.403125 0.789844 0
0.407813 0.921484 0
0.339844 0.917383 0
0.271875 0.913281 0
0.405469 0.855664 0
0.337891 0.851855 0
0.270313 0.848047 0
0.403125 0.789844 0
0.335938 0.786328 0
0.26875 0.782813 0
0.275 1.04375 0
0.20625 1.03906 0
0.1375 1.03437 0
0.273438 0.978516 0
0.205078 0.974121 0
0.136719 0.969727 0
0.271875 0.913281 0
0.203906 0.90918 0
0.135938 0.905078 0
0.1375 1.03437 0
0.06875 1.02969 0
0 1.025 0
0.136719 0.969727 0
0.0683594 0.965332 0
0 0.960937 0
0.135938 0.905078 0
0.0679688 0.900977 0
0 0.896875 0
0.271875 0.913281 0
0.203906 0.90918 0
0.135938 0.905078 0
0.270313 0.848047 0
0.202734 0.844238 0
0.135156 0.84043 0
0.26875 0.782813 0
0.201563 0.779297 0
0.134375 0.775781 0
0.135938 0.905078 0
0.0679688 0.900977 0
0 0.896875 0
0.135156 0.84043 0
0.0675781 0.836621 0
0 0.832812 0
0.134375 0.775781 0
0.0671875 0.772266 0
0 0.76875 0
0.5375 0.796875 0
0.470313 0.793359 0
0.403125 0.789844 0
0.534375 0.730469 0
0.467578 0.727246 0
0.400781 0.724023 0
0.53125 0.664062 0
0.464844 0.661133 0
0.398438 0.658203 0
0.403125 0.789844 0
0.335938 0.786328 0
0.26875 0.782813 0
0.400781 0.724023 0
0.333984 0.720801 0
0.267188 0.717578 0
0.398438 0.658203 0
0.332031 0.655273 0
0.265625 0.652344 0
0.53125 0.664062 0
0.464844 0.661133 0
0.398438 0.658203 0
0.528125 0.597656 0
0.462109 0.59502 0
0.396094 0.592383 0
0.525 0.53125 0
0.459375 0.528906 0
0.39375 0.526563 0
0.398438 0.658203 0
0.332031 0.655273 0
0.265625 0.652344 0
0.396094 0.592383 0
0.330078 0.589746 0
0.264062 0.587109 0
0.39375 0.526563 0
0.328125 0.524219 0
0.2625 0.521875 0
0.26875 0.782813 0
0.201563 0.779297 0
0.134375 0.775781 0
0.267188 0.717578 0
0.200391 0.714355 0
0.133594 0.711133 0
0.265625 0.652344 0
0.199219 0.649414 0
0.132812 0.646484 0
0.134375 0.775781 0
0.0671875 0.772266 0
0 0.76875 0
0.133594 0.711133 0
0.0667969 0.70791 0
0 0.704687 0
0.132812 0.646484 0
0.0664062 0.643555 0
0 0.640625 0
0.265625 0.652344 0
0.199219 0.649414 0
0.132812 0.646484 0
0.264062 0.587109 0
0.198047 0.584473 0
0.132031 0.581836 0
0.2625 0.521875 0
0.196875 0.519531 0
0.13125 0.517187 0
0.132812 0.646484 0
0.0664062 0.643555 0
0 0.640625 0
0.132031 0.581836 0
0.0660156 0.579199 0
0 0.576562 0
0.13125 0.517187 0
0.065625 0.514844 0
0 0.5125 0
1.05 0.55 0
0.984375 0.547656 0
0.91875 0.545313 0
1.04375 0.48125 0
0.978516 0.479199 0
0.913281 0.477148 0
1.0375 0.4125 0
0.972656 0.410742 0
0.907813 0.408984 0
0.91875 0.545313 0
0.853125 0.542969 0
0.7875 0.540625 0
0.913281 0.477148 0
0.848047 0.475098 0
0.782813 0.473047 0
0.907813 0.408984 0
0.842969 0.407227 0
0.778125 0.405469 0
1.0375 0.4125 0
0.972656 0.410742 0
0.907813 0.408984 0
1.03125 0.34375 0
0.966797 0.342285 0
0.902344 0.34082 0
1.025 0.275 0
0.960937 0.273828 0
0.896875 0.272656 0
0.907813 0.408984 0
0.842969 0.407227 0
0.778125 0.405469 0
0.902344 0.34082 0
0.837891 0.339355 0
0.773438 0.337891 0
0.896875 0.272656 0
0.832812 0.271484 0
0.76875 0.270313 0
0.7875 0.540625 0
0.721875 0.538281 0
0.65625 0.535937 0
0.782813 0.473047 0
0.717578 0.470996 0
0.652344 0.468945 0
0.778125 0.405469 0
0.713281 0.403711 0
0.648438 0.401953 0
0.65625 0.535937 0
0.590625 0.533594 0
0.525 0.53125 0
0.652344 0.468945 0
0.587109 0.466895 0
0.521875 0.464844 0
0.648438 0.401953 0
0.583594 0.400195 0
0.51875 0.398438 0
0.778125 0.405469 0
0.713281 0.403711 0
0.648438 0.401953 0
0.773438 0.337891 0
0.708984 0.336426 0
0.644531 0.334961 0
0.76875 0.270313 0
0.704687 0.269141 0
0.640625 0.267969 0
0.648438 0.401953 0
0.583594 0.400195 0
0.51875 0.398438 0
0.644531 0.334961 0
0.580078 0.333496 0
0.515625 0.332031 0
0.640625 0.267969 0
0.576562 0.266797 0
0.5125 0.265625 0
1.025 0.275 0
0.960937 0.273828 0
0.896875 0.272656 0
1.01875 0.20625 0
0.955078 0.205371 0
0.891406 0.204492 0
1.0125 0.1375 0
0.949219 0.136914 0
0.885937 0.136328 0
0.896875 0.272656 0
0.832812 0.271484 0
0.76875 0.270313 0
0.891406 0.204492 0
0.827734 0.203613 0
0.764062 0.202734 0
0.885937 0.136328 0
0.822656 0.135742 0
0.759375 0.135156 0
1.0125 0.1375 0
0.949219 0.136914 0
0.885937 0.136328 0
1.00625 0.06875 0
0.943359 0.068457 0
0.880469 0.0681641 0
1 0 0
0.9375 0 0
0.875 0 0
0.885937 0.136328 0
0.822656 0.135742 0
0.759375 0.135156 0
0.880469 0.0681641 0
0.817578 0.0678711 0
0.754687 0.0675781 0
0.875 0 0
0.8125 0 0
0.75 0 0
0.76875 0.270313 0
0.704687 0.269141 0
0.640625 0.267969 0
0.764062 0.202734 0
0.700391 0.201855 0
0.636719 0.200977 0
0.759375 0.135156 0
0.696094 0.13457 0
0.632812 0.133984 0
0.640625 0.267969 0
0.576562 0.266797 0
0.5125 0.265625 0
0.636719 0.200977 0
0.573047 0.200098 0
0.509375 0.199219 0
0.632812 0.133984 0
0.569531 0.133398 0
0.50625 0.132812 0
0.759375 0.135156 0
0.696094 0.13457 0
0.632812 0.133984 0
0.754687 0.0675781 0
0.691797 0.0672852 0
0.628906 0.0669922 0
0.75 0 0
0.6875 0 0
0.625 0 0
0.632812 0.133984 0
0.569531 0.133398 0
0.50625 0.132812 0
0.628906 0.0669922 0
0.566016 0.0666992 0
0.503125 0.0664062 0
0.625 0 0
0.5625 0 0
0.5 0 0
0.525 0.53125 0
0.459375 0.528906 0
0.39375 0.526563 0
0.521875 0.464844 0
0.456641 0.462793 0
0.391406 0.460742 0
0.51875 0.398438 0
0.453906 0.39668 0
0.389063 0.394922 0
0.39375 0.526563 0
0.328125 0.524219 0
0.2625 0.521875 0
0.391406 0.460742 0
0.326172 0.458691 0
0.260938 0.456641 0
0.389063 0.394922 0
0.324219 0.393164 0
0.259375 0.391406 0
0.51875 0.398438 0
0.453906 0.39668 0
0.389063 0.394922 0
0.515625 0.332031 0
0.451172 0.330566 0
0.386719 0.329102 0
0.5125 0.265625 0
0.448437 0.264453 0
0.384375 0.263281 0
0.389063 0.394922 0
0.324219 0.393164 0
0.259375 0.391406 0
0.386719 0.329102 0
0.322266 0.327637 0
0.257812 0.326172 0
0.384375 0.263281 0
0.320312 0.262109 0
0.25625 0.260937 0
0.2625 0.521875 0
0.196875 0.519531 0
0.13125 0.517187 0
0.260938 0.456641 0
0.195703 0.45459 0
0.130469 0.452539 0
0.259375 0.391406 0
0.194531 0.389648 0
0.129688 0.387891 0
0.13125 0.517187 0
0.065625 0.514844 0
0 0.5125 0
0.130469 0.452539 0
0.0652344 0.450488 0
0 0.448437 0
0.129688 0.387891 0
0.0648438 0.386133 0
0 0.384375 0
0.259375 0.391406 0
0.194531 0.389648 0
0.129688 0.387891 0
0.257812 0.326172 0
0.193359 0.324707 0
0.128906 0.323242 0
0.25625 0.260937 0
0.192187 0.259766 0
0.128125 0.258594 0
0.129688 0.387891 0
0.0648438 0.386133 0
0 0.384375 0
0.128906 0.323242 0
0.0644531 0.321777 0
0 0.320312 0
0.128125 0.258594 0
0.0640625 0.257422 0
0 0.25625 0
0.5125 0.265625 0
0.448437 0.264453 0
0.384375 0.263281 0
0.509375 0.199219 0
0.445703 0.19834 0
0.382031 0.197461 0
0.50625 0.132812 0
0.442969 0.132227 0
0.379688 0.131641 0
0.384375 0.263281 0
0.320312 0.262109 0
0.25625 0.260937 0
0.382031 0.197461 0
0.318359 0.196582 0
0.254687 0.195703 0
[...]
POINT_DATA 34560
VECTORS v double
1.1996 -0.220619 0
1.19029 -0.196002 0
1.18248 -0.174534 0
1.16885 -0.209113 0
1.15736 -0.187452 0
1.14785 -0.16765 0
1.13343 -0.19671 0
1.12047 -0.1771 0
1.10909 -0.15901 0
1.18248 -0.174534 0
1.17583 -0.154669 0
1.1704 -0.137119 0
1.14785 -0.16765 0
1.13914 -0.149441 0
1.1321 -0.133016 0
1.10909 -0.15901 0
1.09883 -0.142316 0
1.09004 -0.127063 0
1.13343 -0.19671 0
1.12047 -0.1771 0
1.10909 -0.15901 0
1.09177 -0.181677 0
1.0774 -0.16435 0
1.06468 -0.148244 0
1.04396 -0.166896 0
1.02879 -0.151568 0
1.01511 -0.137184 0
1.10909 -0.15901 0
1.09883 -0.142316 0
1.09004 -0.127063 0
1.06468 -0.148244 0
1.0531 -0.133245 0
1.04299 -0.11945 0
1.01511 -0.137184 0
1.00264 -0.123704 0
0.991558 -0.11121 0
1.1704 -0.137119 0
1.16533 -0.121082 0
1.16117 -0.106735 0
1.1321 -0.133016 0
1.12525 -0.117926 0
1.11969 -0.104295 0
1.09004 -0.127063 0
1.08175 -0.113019 0
1.07471 -0.100196 0
1.16117 -0.106735 0
1.15692 -0.0935758 0
1.15329 -0.0815862 0
1.11969 -0.104295 0
1.114 -0.0916802 0
1.10924 -0.0801213 0
1.07471 -0.100196 0
1.0678 -0.0882917 0
1.06187 -0.0772955 0
1.09004 -0.127063 0
1.08175 -0.113019 0
1.07471 -0.100196 0
1.04299 -0.11945 0
1.03354 -0.106628 0
1.02534 -0.0948494 0
0.991558 -0.11121 0
0.981234 -0.0995406 0
0.972128 -0.0887526 0
1.07471 -0.100196 0
1.0678 -0.0882917 0
1.06187 -0.0772955 0
1.02534 -0.0948494 0
1.01747 -0.0838319 0
1.01061 -0.0735904 0
0.972128 -0.0887526 0
0.963488 -0.0786181 0
0.955867 -0.0691478 0
1.04396 -0.166896 0
1.02879 -0.151568 0
1.01511 -0.137184 0
0.990788 -0.151214 0
0.975045 -0.137783 0
0.960705 -0.125096 0
0.932694 -0.135707 0
0.916619 -0.123962 0
0.901825 -0.112801 0
1.01511 -0.137184 0
1.00264 -0.123704 0
0.991558 -0.11121 0
0.960705 -0.125096 0
0.947557 -0.113125 0
0.93573 -0.101973 0
0.901825 -0.112801 0
0.888212 -0.102228 0
0.875839 -0.0923337 0
0.932694 -0.135707 0
0.916619 -0.123962 0
0.901825 -0.112801 0
0.869558 -0.119382 0
0.853295 -0.109281 0
0.838256 -0.0996493 0
0.801596 -0.103546 0
0.78536 -0.0949305 0
0.770265 -0.0866826 0
0.901825 -0.112801 0
0.888212 -0.102228 0
0.875839 -0.0923337 0
0.838256 -0.0996493 0
0.824362 -0.0904885 0
0.811654 -0.0818874 0
0.770265 -0.0866826 0
0.756287 -0.0788173 0
0.743429 -0.0714136 0
0.991558 -0.11121 0
0.981234 -0.0995406 0
0.972128 -0.0887526 0
0.93573 -0.101973 0
0.924734 -0.0915071 0
0.914916 -0.0817884 0
0.875839 -0.0923337 0
0.864352 -0.0830196 0
0.853996 -0.0743399 0
0.972128 -0.0887526 0
0.963488 -0.0786181 0
0.955867 -0.0691478 0
0.914916 -0.0817884 0
0.905682 -0.0726215 0
0.897462 -0.0640201 0
0.853996 -0.0743399 0
0.844315 -0.0661343 0
0.835634 -0.0584118 0
0.875839 -0.0923337 0
0.864352 -0.0830196 0
0.853996 -0.0743399 0
0.811654 -0.0818874 0
0.799855 -0.0737663 0
0.78915 -0.0661813 0
0.743429 -0.0714136 0
0.731493 -0.0644155 0
0.720604 -0.0578718 0
0.853996 -0.0743399 0
0.844315 -0.0661343 0
0.835634 -0.0584118 0
0.78915 -0.0661813 0
0.779179 -0.0589948 0
0.770193 -0.0522185 0
0.720604 -0.0578718 0
0.710489 -0.051672 0
0.701336 -0.0458227 0
1.15329 -0.0815862 0
1.14948 -0.0703825 0
1.14609 -0.0598852 0
1.10924 -0.0801213 0
1.10432 -0.0692361 0
1.10008 -0.0590038 0
1.06187 -0.0772955 0
1.056 -0.0669029 0
1.05091 -0.0570794 0
1.14609 -0.0598852 0
1.14241 -0.0497866 0
1.139 -0.0399932 0
1.10008 -0.0590038 0
1.09562 -0.0491048 0
1.09164 -0.0394839 0
1.05091 -0.0570794 0
1.04578 -0.047544 0
1.04124 -0.0382415 0
1.06187 -0.0772955 0
1.056 -0.0669029 0
1.05091 -0.0570794 0
1.01061 -0.0735904 0
1.004 -0.0638487 0
0.99821 -0.0545931 0
0.955867 -0.0691478 0
0.948644 -0.0601052 0
0.942288 -0.051474 0
1.05091 -0.0570794 0
1.04578 -0.047544 0
1.04124 -0.0382415 0
0.99821 -0.0545931 0
0.992563 -0.0455635 0
0.987582 -0.0367124 0
0.942288 -0.051474 0
0.936215 -0.043021 0
0.930871 -0.0347024 0
1.139 -0.0399932 0
1.13542 -0.0302403 0
1.13203 -0.0204344 0
1.09164 -0.0394839 0
1.08759 -0.0298823 0
1.08392 -0.020222 0
1.04124 -0.0382415 0
1.03679 -0.0289348 0
1.03284 -0.0195615 0
1.13203 -0.0204344 0
1.12844 -0.0103672 0
1.125 0 0
1.08392 -0.020222 0
1.08013 -0.0102933 0
1.07666 0 0
1.03284 -0.0195615 0
1.0289 -0.00992901 0
1.02539 0 0
1.04124 -0.0382415 0
1.03679 -0.0289348 0
1.03284 -0.0195615 0
0.987582 -0.0367124 0
0.982835 -0.0278221 0
0.978681 -0.0188463 0
0.930871 -0.0347024 0
0.925886 -0.0263215 0
0.92157 -0.0178351 0
1.03284 -0.0195615 0
1.0289 -0.00992901 0
1.02539 0 0
0.978681 -0.0188463 0
0.974673 -0.00959849 0
0.971191 0 0
0.92157 -0.0178351 0
0.917513 -0.00907464 0
0.914062 0 0
0.955867 -0.0691478 0
0.948644 -0.0601052 0
0.942288 -0.051474 0
0.897462 -0.0640201 0
0.889765 -0.0557731 0
0.88296 -0.0478686 0
0.835634 -0.0584118 0
0.827575 -0.0509886 0
0.820425 -0.0438504 0
0.942288 -0.051474 0
0.936215 -0.043021 0
0.930871 -0.0347024 0
0.88296 -0.0478686 0
0.876566 -0.040093 0
0.870953 -0.0324084 0
0.820425 -0.0438504 0
0.813793 -0.036804 0
0.807981 -0.0298108 0
0.835634 -0.0584118 0
0.827575 -0.0509886 0
0.820425 -0.0438504 0
0.770193 -0.0522185 0
0.761901 -0.0456879 0
0.754526 -0.0393908 0
0.701336 -0.0458227 0
0.692923 -0.0401823 0
0.685424 -0.0347353 0
0.820425 -0.0438504 0
0.813793 -0.036804 0
0.807981 -0.0298108 0
0.754526 -0.0393908 0
0.747751 -0.0331476 0
0.741829 -0.0269227 0
0.685424 -0.0347353 0
0.678588 -0.0293185 0
0.672624 -0.0238934 0
0.930871 -0.0347024 0
0.925886 -0.0263215 0
0.92157 -0.0178351 0
0.870953 -0.0324084 0
0.86581 -0.0246306 0
0.861401 -0.0167237 0
0.807981 -0.0298108 0
0.802735 -0.0227014 0
0.79828 -0.0154426 0
0.92157 -0.0178351 0
0.917513 -0.00907464 0
0.914062 0 0
0.861401 -0.0167237 0
0.857361 -0.0085307 0
0.854004 0 0
0.79828 -0.0154426 0
0.794277 -0.00789049 0
0.791016 0 0
0.807981 -0.0298108 0
0.802735 -0.0227014 0
0.79828 -0.0154426 0
0.741829 -0.0269227 0
0.736549 -0.0205559 0
0.732109 -0.0140188 0
0.672624 -0.0238934 0
0.667365 -0.0183098 0
0.662982 -0.0125384 0
0.79828 -0.0154426 0
0.794277 -0.00789049 0
0.791016 0 0
0.732109 -0.0140188 0
0.728202 -0.00717722 0
0.725098 0 0
0.662982 -0.0125384 0
0.659194 -0.0064542 0
0.65625 0 0
0.801596 -0.103546 0
0.78536 -0.0949305 0
0.770265 -0.0866826 0
0.728997 -0.0872846 0
0.712875 -0.0800913 0
0.697856 -0.073196 0
0.651648 -0.0715368 0
0.635798 -0.0656765 0
0.621004 -0.0600512 0
0.770265 -0.0866826 0
0.756287 -0.0788173 0
0.743429 -0.0714136 0
0.697856 -0.073196 0
0.683918 -0.0666104 0
0.671063 -0.0604071 0
0.621004 -0.0600512 0
0.607272 -0.0546757 0
0.594587 -0.0496119 0
0.651648 -0.0715368 0
0.635798 -0.0656765 0
0.621004 -0.0600512 0
0.569268 -0.0555703 0
0.553818 -0.0510101 0
0.539419 -0.0466405 0
0.48071 -0.0403789 0
0.466017 -0.0370671 0
0.452341 -0.0338993 0
0.621004 -0.0600512 0
0.607272 -0.0546757 0
0.594587 -0.0496119 0
0.539419 -0.0466405 0
0.526058 -0.0424686 0
0.513727 -0.0385461 0
0.452341 -0.0338993 0
0.439677 -0.0308782 0
0.428008 -0.0280459 0
0.743429 -0.0714136 0
0.731493 -0.0644155 0
0.720604 -0.0578718 0
0.671063 -0.0604071 0
0.659132 -0.0545414 0
0.648217 -0.0490589 0
0.594587 -0.0496119 0
0.582827 -0.0448269 0
0.57205 -0.0403605 0
0.720604 -0.0578718 0
0.710489 -0.051672 0
0.701336 -0.0458227 0
0.648217 -0.0490589 0
0.6381 -0.0438674 0
0.628921 -0.038974 0
0.57205 -0.0403605 0
0.562085 -0.03614 0
0.553029 -0.0321703 0
0.594587 -0.0496119 0
0.582827 -0.0448269 0
0.57205 -0.0403605 0
0.513727 -0.0385461 0
0.502316 -0.0348446 0
0.491867 -0.031399 0
0.428008 -0.0280459 0
0.417236 -0.0253774 0
0.407384 -0.0229019 0
0.57205 -0.0403605 0
0.562085 -0.03614 0
0.553029 -0.0321703 0
0.491867 -0.031399 0
0.482228 -0.02815 0
0.473471 -0.0251032 0
0.407384 -0.0229019 0
0.398321 -0.0205726 0
0.390095 -0.0183961 0
0.48071 -0.0403789 0
0.466017 -0.0370671 0
0.452341 -0.0338993 0
0.384131 -0.0257445 0
0.370779 -0.0236183 0
0.358401 -0.0215964 0
0.275962 -0.0131294 0
0.265093 -0.0120633 0
0.255032 -0.0110559 0
0.452341 -0.0338993 0
0.439677 -0.0308782 0
0.428008 -0.0280459 0
0.358401 -0.0215964 0
0.346958 -0.0196741 0
0.336445 -0.0178825 0
0.255032 -0.0110559 0
0.245745 -0.0100959 0
0.237221 -0.0092069 0
0.275962 -0.0131294 0
0.265093 -0.0120633 0
0.255032 -0.0110559 0
0.151109 -0.00372442 0
0.144409 -0.00341445 0
0.138219 -0.0031302 0
0 0 0
0 0 0
0 0 0
0.255032 -0.0110559 0
0.245745 -0.0100959 0
0.237221 -0.0092069 0
0.138219 -0.0031302 0
0.132484 -0.00285761 0
0.127218 -0.0026139 0
0 0 0
0 0 0
0 0 0
0.428008 -0.0280459 0
0.417236 -0.0253774 0
0.407384 -0.0229019 0
0.336445 -0.0178825 0
0.326759 -0.0161988 0
0.317917 -0.0146448 0
0.237221 -0.0092069 0
0.229373 -0.00836831 0
0.222206 -0.00759866 0
0.407384 -0.0229019 0
0.398321 -0.0205726 0
0.390095 -0.0183961 0
0.317917 -0.0146448 0
0.309797 -0.0131836 0
0.302434 -0.0118239 0
0.222206 -0.00759866 0
0.215622 -0.00687199 0
0.209643 -0.00619926 0
0.237221 -0.0092069 0
0.229373 -0.00836831 0
0.222206 -0.00759866 0
0.127218 -0.0026139 0
0.122345 -0.00237863 0
0.117886 -0.00216964 0
0 0 0
0 0 0
0 0 0
0.222206 -0.00759866 0
0.215622 -0.00687199 0
0.209643 -0.00619926 0
0.117886 -0.00216964 0
0.113764 -0.00196575 0
0.110011 -0.00178305 0
0 0 0
0 0 0
0 0 0
0.701336 -0.0458227 0
0.692923 -0.0401823 0
0.685424 -0.0347353 0
0.628921 -0.038974 0
0.620508 -0.0342549 0
0.613 -0.0296964 0
0.553029 -0.0321703 0
0.544747 -0.0283489 0
0.537347 -0.0246619 0
0.685424 -0.0347353 0
0.678588 -0.0293185 0
0.672624 -0.0238934 0
0.613 -0.0296964 0
0.606195 -0.025148 0
0.600269 -0.020571 0
0.537347 -0.0246619 0
0.530665 -0.0209768 0
0.524855 -0.0172514 0
0.553029 -0.0321703 0
0.544747 -0.0283489 0
0.537347 -0.0246619 0
0.473471 -0.0251032 0
0.465475 -0.0221738 0
0.458327 -0.0193539 0
0.390095 -0.0183961 0
0.382592 -0.0163079 0
0.37588 -0.0143031 0
0.537347 -0.0246619 0
0.530665 -0.0209768 0
0.524855 -0.0172514 0
0.458327 -0.0193539 0
0.451889 -0.0165298 0
0.446297 -0.0136614 0
0.37588 -0.0143031 0
0.369843 -0.0122926 0
0.364598 -0.0102408 0
0.672624 -0.0238934 0
0.667365 -0.0183098 0
0.662982 -0.0125384 0
0.600269 -0.020571 0
0.595092 -0.0158222 0
0.59082 -0.0108734 0
0.524855 -0.0172514 0
0.519816 -0.0133524 0
0.515697 -0.00924809 0
0.662982 -0.0125384 0
0.659194 -0.0064542 0
0.65625 0 0
0.59082 -0.0108734 0
0.587201 -0.00560494 0
0.584473 0 0
0.515697 -0.00924809 0
0.512272 -0.00482477 0
0.509766 0 0
0.524855 -0.0172514 0
0.519816 -0.0133524 0
0.515697 -0.00924809 0
0.446297 -0.0136614 0
0.441468 -0.0106264 0
0.437552 -0.007398 0
0.364598 -0.0102408 0
0.360076 -0.00804481 0
0.35643 -0.00567163 0
0.515697 -0.00924809 0
0.512272 -0.00482477 0
0.509766 0 0
0.437552 -0.007398 0
0.434365 -0.00386387 0
0.432129 0 0
0.35643 -0.00567163 0
0.353519 -0.0030285 0
0.351562 0 0
0.390095 -0.0183961 0
0.382592 -0.0163079 0
0.37588 -0.0143031 0
0.302434 -0.0118239 0
0.295716 -0.0105165 0
0.289704 -0.00926345 0
0.209643 -0.00619926 0
0.204177 -0.00554907 0
0.199271 -0.00492696 0
0.37588 -0.0143031 0
0.369843 -0.0122926 0
0.364598 -0.0102408 0
0.289704 -0.00926345 0
0.284292 -0.00799963 0
0.279588 -0.00670233 0
0.199271 -0.00492696 0
0.194839 -0.00429504 0
0.19098 -0.00364641 0
0.209643 -0.00619926 0
0.204177 -0.00554907 0
0.199271 -0.00492696 0
0.110011 -0.00178305 0
0.10655 -0.00160055 0
0.103444 -0.00142918 0
0 0 0
0 0 0
0 0 0
0.199271 -0.00492696 0
0.194839 -0.00429504 0
0.19098 -0.00364641 0
0.103444 -0.00142918 0
0.100606 -0.00124488 0
0.0981347 -0.00105961 0
0 0 0
0 0 0
0 0 0
0.364598 -0.0102408 0
0.360076 -0.00804481 0
0.35643 -0.00567163 0
0.279588 -0.00670233 0
0.275525 -0.0052889 0
0.272268 -0.0037394 0
0.19098 -0.00364641 0
0.187638 -0.00293252 0
0.184972 -0.00212262 0
0.35643 -0.00567163 0
0.353519 -0.0030285 0
0.351562 0 0
0.272268 -0.0037394 0
0.269704 -0.00197116 0
0.268066 0 0
0.184972 -0.00212262 0
0.182901 -0.00118032 0
0.181641 0 0
0.19098 -0.00364641 0
0.187638 -0.00293252 0
0.184972 -0.00212262 0
0.0981347 -0.00105961 0
0.0959645 -0.000853898 0
0.0942921 -0.000608837 0
0 0 0
0 0 0
0 0 0
0.184972 -0.00212262 0
0.182901 -0.00118032 0
0.181641 0 0
0.0942921 -0.000608837 0
0.0929704 -0.000282853 0
0.0922852 0 0
0 0 0
0 0 0
0 0 0
1.6026 -0.390226 0
1.56854 -0.406672 0
1.53135 -0.418391 0
1.54321 -0.347142 0
1.51227 -0.361985 0
1.47877 -0.372661 0
1.47981 -0.309439 0
1.45274 -0.32278 0
1.42337 -0.332664 0
1.53135 -0.418391 0
1.49423 -0.424204 0
1.45534 -0.424878 0
1.47877 -0.372661 0
1.44533 -0.378826 0
1.41042 -0.380561 0
1.42337 -0.332664 0
1.39405 -0.338895 0
1.36338 -0.34134 0
1.47981 -0.309439 0
1.45274 -0.32278 0
1.42337 -0.332664 0
1.4191 -0.277505 0
1.3947 -0.2883 0
1.36841 -0.296354 0
1.35476 -0.246115 0
1.33176 -0.255412 0
1.30719 -0.262445 0
1.42337 -0.332664 0
1.39405 -0.338895 0
1.36338 -0.34134 0
1.36841 -0.296354 0
1.34191 -0.301446 0
1.3142 -0.303521 0
1.30719 -0.262445 0
1.28252 -0.267074 0
1.25689 -0.269208 0
1.45534 -0.424878 0
1.41962 -0.420403 0
1.38371 -0.411134 0
1.41042 -0.380561 0
1.3781 -0.37794 0
1.34558 -0.371552 0
1.36338 -0.34134 0
1.33465 -0.340198 0
1.30565 -0.335659 0
1.38371 -0.411134 0
1.35229 -0.39845 0
1.32186 -0.382358 0
1.34558 -0.371552 0
1.31675 -0.361849 0
1.28877 -0.349264 0
1.30565 -0.335659 0
1.27944 -0.328151 0
1.25386 -0.31797 0
1.36338 -0.34134 0
1.33465 -0.340198 0
1.30565 -0.335659 0
1.3142 -0.303521 0
1.28782 -0.302665 0
1.26109 -0.29903 0
1.25689 -0.269208 0
1.23233 -0.268911 0
1.20756 -0.266292 0
1.30565 -0.335659 0
1.27944 -0.328151 0
1.25386 -0.31797 0
1.26109 -0.29903 0
1.2365 -0.292967 0
1.21235 -0.284682 0
1.20756 -0.266292 0
1.18456 -0.261586 0
1.16199 -0.254952 0
1.35476 -0.246115 0
1.33176 -0.255412 0
1.30719 -0.262445 0
1.28736 -0.218196 0
1.2658 -0.226273 0
1.24293 -0.23242 0
1.21915 -0.191213 0
1.19869 -0.198284 0
1.17707 -0.203735 0
1.30719 -0.262445 0
1.28252 -0.267074 0
1.25689 -0.269208 0
1.24293 -0.23242 0
1.22002 -0.236512 0
1.19629 -0.238496 0
1.17707 -0.203735 0
1.15541 -0.207455 0
1.13304 -0.20939 0
1.21915 -0.191213 0
1.19869 -0.198284 0
1.17707 -0.203735 0
1.14917 -0.165769 0
1.12942 -0.171786 0
1.10868 -0.176444 0
1.07648 -0.141066 0
1.05716 -0.146286 0
1.03697 -0.150375 0
1.17707 -0.203735 0
1.15541 -0.207455 0
1.13304 -0.20939 0
1.10868 -0.176444 0
1.0879 -0.179664 0
1.0665 -0.181391 0
1.03697 -0.150375 0
1.01677 -0.153272 0
0.996066 -0.154919 0
1.25689 -0.269208 0
1.23233 -0.268911 0
1.20756 -0.266292 0
1.19629 -0.238496 0
1.17345 -0.238414 0
1.15041 -0.236344 0
1.13304 -0.20939 0
1.11138 -0.209567 0
1.08956 -0.208043 0
1.20756 -0.266292 0
1.18456 -0.261586 0
1.16199 -0.254952 0
1.15041 -0.236344 0
1.12881 -0.232476 0
1.10756 -0.226932 0
1.08956 -0.208043 0
1.06891 -0.204967 0
1.04858 -0.200438 0
1.13304 -0.20939 0
1.11138 -0.209567 0
1.08956 -0.208043 0
1.0665 -0.181391 0
1.0457 -0.181659 0
1.02476 -0.180494 0
0.996066 -0.154919 0
0.97589 -0.15534 0
0.955617 -0.154552 0
1.08956 -0.208043 0
1.06891 -0.204967 0
1.04858 -0.200438 0
1.02476 -0.180494 0
1.00482 -0.178025 0
0.985185 -0.174312 0
0.955617 -0.154552 0
0.936218 -0.152651 0
0.917115 -0.149683 0
1.32186 -0.382358 0
1.29654 -0.364463 0
1.27322 -0.344284 0
1.28877 -0.349264 0
1.26511 -0.334448 0
1.24314 -0.317981 0
1.25386 -0.31797 0
1.2316 -0.305782 0
1.21069 -0.291911 0
1.27322 -0.344284 0
1.25406 -0.32364 0
1.23725 -0.302241 0
1.24314 -0.317981 0
1.22473 -0.300524 0
1.20838 -0.282219 0
1.21069 -0.291911 0
1.1927 -0.276911 0
1.1764 -0.261025 0
1.25386 -0.31797 0
1.2316 -0.305782 0
1.21069 -0.291911 0
1.21235 -0.284682 0
1.19094 -0.274659 0
1.17064 -0.263116 0
1.16199 -0.254952 0
1.14171 -0.246737 0
1.12243 -0.237164 0
1.21069 -0.291911 0
1.1927 -0.276911 0
1.1764 -0.261025 0
1.17064 -0.263116 0
1.15285 -0.25055 0
1.13658 -0.237173 0
1.12243 -0.237164 0
1.1053 -0.226604 0
1.08949 -0.215236 0
1.23725 -0.302241 0
1.22415 -0.281129 0
1.21369 -0.25998 0
1.20838 -0.282219 0
1.19528 -0.263625 0
1.18441 -0.245081 0
1.1764 -0.261025 0
1.1628 -0.244799 0
1.15113 -0.228455 0
1.21369 -0.25998 0
1.2056 -0.239776 0
1.1996 -0.220619 0
1.18441 -0.245081 0
1.17559 -0.226909 0
1.16885 -0.209113 0
1.15113 -0.228455 0
1.14136 -0.212337 0
1.13343 -0.19671 0
1.1764 -0.261025 0
1.1628 -0.244799 0
1.15113 -0.228455 0
1.13658 -0.237173 0
1.12276 -0.223398 0
1.11069 -0.209391 0
1.08949 -0.215236 0
1.07582 -0.203385 0
1.06368 -0.191238 0
1.15113 -0.228455 0
1.14136 -0.212337 0
1.13343 -0.19671 0
1.11069 -0.209391 0
1.10039 -0.195437 0
1.09177 -0.181677 0
1.06368 -0.191238 0
1.05308 -0.179019 0
1.04396 -0.166896 0
1.16199 -0.254952 0
1.14171 -0.246737 0
1.12243 -0.237164 0
1.10756 -0.226932 0
1.0882 -0.220013 0
1.0697 -0.211889 0
1.04858 -0.200438 0
1.02984 -0.194691 0
1.01186 -0.187877 0
1.12243 -0.237164 0
1.1053 -0.226604 0
1.08949 -0.215236 0
1.0697 -0.211889 0
1.05298 -0.202875 0
1.03742 -0.193107 0
1.01186 -0.187877 0
0.995441 -0.180245 0
0.980064 -0.171924 0
1.04858 -0.200438 0
1.02984 -0.194691 0
1.01186 -0.187877 0
0.985185 -0.174312 0
0.966909 -0.169554 0
0.949332 -0.16386 0
0.917115 -0.149683 0
0.89919 -0.145804 0
0.881914 -0.141111 0
1.01186 -0.187877 0
0.995441 -0.180245 0
0.980064 -0.171924 0
0.949332 -0.16386 0
0.933125 -0.157444 0
0.917867 -0.150404 0
0.881914 -0.141111 0
0.865849 -0.13577 0
0.850663 -0.129871 0
1.08949 -0.215236 0
1.07582 -0.203385 0
1.06368 -0.191238 0
1.03742 -0.193107 0
1.02371 -0.182884 0
1.01136 -0.172377 0
0.980064 -0.171924 0
0.966338 -0.163163 0
0.953846 -0.154109 0
1.06368 -0.191238 0
1.05308 -0.179019 0
1.04396 -0.166896 0
1.01136 -0.172377 0
1.0004 -0.161791 0
0.990788 -0.151214 0
0.953846 -0.154109 0
0.942652 -0.144925 0
0.932694 -0.135707 0
0.980064 -0.171924 0
0.966338 -0.163163 0
0.953846 -0.154109 0
0.917867 -0.150404 0
0.904071 -0.14295 0
0.891403 -0.135207 0
0.850663 -0.129871 0
0.836787 -0.123584 0
0.823959 -0.117027 0
0.953846 -0.154109 0
0.942652 -0.144925 0
0.932694 -0.135707 0
0.891403 -0.135207 0
0.879916 -0.127321 0
0.869558 -0.119382 0
0.823959 -0.117027 0
0.812241 -0.110322 0
0.801596 -0.103546 0
1.07648 -0.141066 0
1.05716 -0.146286 0
1.03697 -0.150375 0
1.00173 -0.117785 0
0.982668 -0.122223 0
0.962856 -0.125717 0
0.923842 -0.0947593 0
0.904927 -0.0985663 0
0.8853 -0.101596 0
1.03697 -0.150375 0
1.01677 -0.153272 0
0.996066 -0.154919 0
0.962856 -0.125717 0
0.943057 -0.128215 0
0.92281 -0.129668 0
0.8853 -0.101596 0
0.865708 -0.103809 0
0.845713 -0.105162 0
0.923842 -0.0947593 0
0.904927 -0.0985663 0
0.8853 -0.101596 0
0.840349 -0.0725275 0
0.82172 -0.0756914 0
0.802403 -0.0782319 0
0.745199 -0.0510427 0
0.727391 -0.0535928 0
0.708831 -0.0556719 0
0.8853 -0.101596 0
0.865708 -0.103809 0
0.845713 -0.105162 0
0.802403 -0.0782319 0
0.783091 -0.0801162 0
0.763387 -0.081311 0
0.708831 -0.0556719 0
0.690225 -0.0572562 0
0.67119 -0.0583155 0
0.996066 -0.154919 0
0.97589 -0.15534 0
0.955617 -0.154552 0
0.92281 -0.129668 0
0.903029 -0.130098 0
0.883176 -0.129516 0
0.845713 -0.105162 0
0.826135 -0.105672 0
0.806508 -0.105346 0
0.955617 -0.154552 0
0.936218 -0.152651 0
0.917115 -0.149683 0
0.883176 -0.129516 0
0.86409 -0.128005 0
0.845289 -0.125596 0
0.806508 -0.105346 0
0.787574 -0.104248 0
0.768929 -0.102405 0
0.845713 -0.105162 0
0.826135 -0.105672 0
0.806508 -0.105346 0
0.763387 -0.081311 0
0.74404 -0.0818321 0
0.724642 -0.0816799 0
0.67119 -0.0583155 0
0.652434 -0.0588628 0
0.633598 -0.058895 0
0.806508 -0.105346 0
0.787574 -0.104248 0
0.768929 -0.102405 0
0.724642 -0.0816799 0
0.705864 -0.0809097 0
0.687361 -0.0795377 0
0.633598 -0.058895 0
0.6153 -0.0584556 0
0.597249 -0.0575545 0
0.745199 -0.0510427 0
0.727391 -0.0535928 0
0.708831 -0.0556719 0
0.628618 -0.0314916 0
0.612792 -0.0333363 0
0.596121 -0.0348621 0
0.475297 -0.0145891 0
0.463228 -0.0156927 0
0.450243 -0.016628 0
0.708831 -0.0556719 0
0.690225 -0.0572562 0
0.67119 -0.0583155 0
0.596121 -0.0348621 0
0.57928 -0.0360488 0
0.561921 -0.0368745 0
0.450243 -0.016628 0
0.436959 -0.0173873 0
0.423086 -0.0179499 0
0.475297 -0.0145891 0
0.463228 -0.0156927 0
0.450243 -0.016628 0
0.269087 -0.00398948 0
0.262771 -0.00434397 0
0.255647 -0.00464552 0
0 0 0
0 0 0
0 0 0
0.450243 -0.016628 0
0.436959 -0.0173873 0
0.423086 -0.0179499 0
0.255647 -0.00464552 0
0.248275 -0.0048957 0
0.240323 -0.00507685 0
0 0 0
0 0 0
0 0 0
0.67119 -0.0583155 0
0.652434 -0.0588628 0
0.633598 -0.058895 0
0.561921 -0.0368745 0
0.544715 -0.0373488 0
0.527347 -0.0374657 0
0.423086 -0.0179499 0
0.409204 -0.018326 0